The data file data.cnt:

690 atoms
1 atom types
-37.7 37.7      xlo xhi
-37.7 37.7      ylo yhi
-96.6 80.6      zlo zhi

Atoms

1	1	-0.796016	-2.810170	-10.154658
2	1	-1.165350	-1.977839	-11.283957
3	1	-1.092367	-0.563889	-11.044773
4	1	-1.119180	0.404550	-12.079906
5	1	-1.338693	1.796433	-11.845828
6	1	-1.108832	2.679477	-12.962845
7	1	0.323294	-2.881768	-7.814141
8	1	-0.304493	-2.219585	-8.931159
9	1	-0.784572	-0.894802	-8.697080
10	1	-1.228857	-0.033870	-9.732213
11	1	-1.975709	1.168956	-9.493029
12	1	-2.054336	2.076151	-10.622329
13	1	-1.837558	3.910740	-12.887780
14	1	-2.985419	3.933826	-12.028800
15	1	-3.041698	3.092071	-10.865997
16	1	-4.314722	2.985626	-10.232936
17	1	-1.730113	4.929182	-13.875666
18	1	-1.169870	-4.176630	-9.910989
19	1	-0.714018	-4.886501	-8.748186
20	1	0.279918	-4.311862	-7.889206
21	1	-3.118019	-4.191430	-11.623532
22	1	-2.335964	-4.698304	-10.544050
23	1	-2.898510	5.653641	-14.244756
24	1	-4.180952	5.291731	-13.799569
25	1	-5.216787	5.334491	-14.791210
26	1	-6.237958	4.352903	-14.531915
27	1	-6.679446	3.639353	-15.689494
28	1	-7.102065	2.287429	-15.430200
29	1	-6.601481	1.379575	-16.421840
30	1	-6.352957	0.070426	-15.976653
31	1	-4.173180	4.518211	-12.610185
32	1	-5.443857	3.996743	-12.268522
33	1	-6.455142	3.739323	-13.248917
34	1	-7.254257	2.563741	-12.985660
35	1	-7.491956	1.758788	-14.140335
36	1	-7.583656	0.361659	-13.795808
37	1	-6.918716	-0.404076	-14.781838
38	1	-6.184433	-1.557225	-14.465590
39	1	-5.441289	3.326340	-11.033608
40	1	-6.485347	2.443806	-10.717360
41	1	-7.347962	1.910522	-11.703390
42	1	-7.675998	0.549357	-11.358863
43	1	-7.688497	-0.289865	-12.513538
44	1	-7.275239	-1.649937	-12.250281
45	1	-6.386301	-2.196519	-13.230676
46	1	-5.905811	1.717862	-17.611224
47	1	1.476736	-2.519911	-5.432446
48	1	0.620430	-2.210193	-6.561746
49	1	-0.349352	-1.178639	-6.322562
50	1	-1.066741	-0.527529	-7.357694
51	1	-2.223098	0.277682	-7.123616
52	1	-2.701169	1.054889	-8.240634
53	1	2.303308	-1.761783	-3.091929
54	1	1.390854	-1.756359	-4.208947
55	1	0.102525	-1.185627	-3.974869
56	1	-0.826307	-0.910194	-5.010002
57	1	-2.211321	-0.616397	-4.770817
58	1	-2.920388	-0.045076	-5.900117
59	1	-4.094154	1.381453	-8.165568
60	1	-4.905486	0.569136	-7.306588
61	1	-4.337037	-0.054228	-6.143786
62	1	-5.141551	-1.046537	-5.510724
63	1	-4.754678	2.164061	-9.153454
64	1	2.203953	-3.735696	-5.188778
65	1	3.031787	-3.898202	-4.025975
66	1	3.305237	-2.783149	-3.166995
67	1	0.865913	-5.151730	-6.901321
68	1	1.773097	-4.938311	-5.821839
69	1	-6.086340	1.822493	-9.522545
70	1	-6.713031	0.646527	-9.077358
71	1	-7.461003	-0.071331	-10.068998
72	1	-7.459653	-1.487771	-9.809704
73	1	-7.250399	-2.300346	-10.967283
74	1	-6.567432	-3.541257	-10.707988
75	1	-5.565764	-3.808549	-11.699629
76	1	-4.449024	-4.535549	-11.254442
77	1	-6.149476	0.116621	-7.887974
78	1	-6.652885	-1.161319	-7.546311
79	1	-7.167251	-2.069278	-8.526705
80	1	-6.872183	-3.459786	-8.263448
81	1	-6.455888	-4.188585	-9.418124
82	1	-5.511202	-5.222000	-9.073596
83	1	-4.498303	-5.272304	-10.059626
84	1	-3.157838	-5.540778	-9.743379
85	1	-6.167343	-1.623591	-6.311396
86	1	-6.253314	-2.987971	-5.995149
87	1	-6.465691	-3.979632	-6.981178
88	1	-5.710574	-5.158690	-6.636651
89	1	-5.113643	-5.748710	-7.791327
90	1	-3.846111	-6.392091	-7.528069
91	1	-2.836278	-6.129035	-8.508464
92	1	-5.328255	-3.072354	-12.889013
93	1	2.840729	-0.678940	-0.710235
94	1	2.024408	-1.082431	-1.839534
95	1	0.608649	-1.068075	-1.600350
96	1	-0.357848	-1.134975	-2.635483
97	1	-1.739445	-1.411950	-2.401405
98	1	-2.631252	-1.218860	-3.518422
99	1	2.865905	0.442374	1.630282
100	1	2.230292	-0.212300	0.513264
101	1	0.926530	-0.746838	0.747343
102	1	0.084738	-1.226400	-0.287790
103	1	-1.086123	-2.022430	-0.048606
104	1	-1.989282	-2.138564	-1.177906
105	1	-3.831276	-1.997958	-3.443357
106	1	-3.806799	-3.145790	-2.584377
107	1	-2.963436	-3.167157	-1.421574
108	1	-2.804355	-4.434679	-0.788513
109	1	-4.853294	-1.932787	-4.431243
110	1	4.221500	-0.995877	-0.466566
111	1	4.911881	-0.511014	0.696237
112	1	4.296568	0.458268	1.555217
113	1	4.316976	-2.941741	-2.179109
114	1	4.791024	-2.139364	-1.099627
115	1	-5.528738	-3.130187	-4.800333
116	1	-5.114022	-4.396539	-4.355146
117	1	-5.113842	-5.433257	-5.346787
118	1	-4.090801	-6.412895	-5.087492
119	1	-3.359578	-6.824450	-6.245071
120	1	-1.991310	-7.190712	-5.985777
121	1	-1.104969	-6.652956	-6.977417
122	1	0.192764	-6.350422	-6.532230
123	1	-4.341487	-4.356736	-3.165762
124	1	-3.767838	-5.604725	-2.824099
125	1	-3.468753	-6.604480	-3.804494
126	1	-2.261082	-7.354218	-3.541237
127	1	-1.446974	-7.558373	-4.695912
128	1	-0.047246	-7.592128	-4.351385
129	1	0.690291	-6.896043	-5.337415
130	1	1.812038	-6.114629	-5.021167
131	1	-3.098117	-5.574391	-1.589185
132	1	-2.173096	-6.581000	-1.272937
133	1	-1.604542	-7.420787	-2.258967
134	1	-0.230958	-7.692165	-1.914440
135	1	0.608062	-7.669894	-3.069115
136	1	1.949850	-7.200659	-2.805858
137	1	2.459144	-6.289845	-3.786253
138	1	-1.471779	-5.971894	-8.166801
139	1	-2.578912	-1.371098	-14.876869
140	1	-2.233994	-0.528355	-16.006169
141	1	-1.163158	0.397869	-15.766985
142	1	-0.482894	1.087675	-16.802117
143	1	0.369521	2.209689	-16.568039
144	1	1.165861	2.655160	-17.685057
145	1	-1.855670	-2.228361	-12.536352
146	1	-1.812459	-1.316915	-13.653370
147	1	-1.188856	-0.053330	-13.419292
148	1	-0.875189	0.863297	-14.454425
149	1	-0.524279	2.234954	-14.215241
150	1	0.075920	2.919749	-15.344540
151	1	1.549840	4.033423	-17.609991
152	1	0.771825	4.877704	-16.751011
153	1	0.125451	4.335562	-15.588209
154	1	-0.832685	5.180485	-14.955147
155	1	2.359135	4.660967	-18.597877
156	1	-3.823775	-2.047335	-14.633201
157	1	-4.020429	-2.867728	-13.470398
158	1	-2.917658	-3.187127	-12.611418
159	1	-5.183174	-0.651793	-16.345744
160	1	-5.007512	-1.567039	-15.266262
161	1	2.073015	6.005633	-18.966968
162	1	0.924015	6.680492	-18.521781
163	1	0.237753	7.457556	-19.513421
164	1	-1.177528	7.514873	-19.254127
165	1	-1.998073	7.339454	-20.411706
166	1	-3.266206	6.708469	-20.152411
167	1	-3.574756	5.718732	-21.144052
168	1	-4.347385	4.633061	-20.698865
169	1	0.371222	6.139369	-17.332397
170	1	-0.884770	6.695276	-16.990734
171	1	-1.770647	7.246807	-17.971128
172	1	-3.172182	7.009584	-17.707871
173	1	-3.917599	6.623833	-18.862547
174	1	-4.989254	5.722760	-18.518019
175	1	-5.081467	4.712813	-19.504049
176	1	-5.405231	3.384618	-19.187802
177	1	-1.366756	6.229297	-15.755819
178	1	-2.726405	6.371705	-15.439572
179	1	-3.708419	6.624973	-16.425601
180	1	-4.917740	5.919339	-16.081074
181	1	-5.531978	5.347358	-17.235750
182	1	-6.227306	4.107561	-16.972492
183	1	-6.006301	3.087698	-17.952887
184	1	-2.849030	5.450934	-22.333436
185	1	2.456584	1.579839	4.011977
186	1	2.182599	0.711441	2.882677
187	1	1.192098	-0.300235	3.121861
188	1	0.571259	-1.043976	2.086729
189	1	-0.185367	-2.232691	2.320807
190	1	-0.942105	-2.742543	1.203789
191	1	1.664872	2.374301	6.352494
192	1	1.697245	1.462406	5.235476
193	1	1.180363	0.151544	5.469554
194	1	0.943638	-0.787899	4.434421
195	1	0.707458	-2.183893	4.673606
196	1	0.165995	-2.916015	3.544306
197	1	-1.210694	-4.147858	1.278855
198	1	-0.365471	-4.924850	2.137835
199	1	0.233815	-4.331070	3.300637
200	1	1.258594	-5.093793	3.933699
201	1	-1.965273	-4.840230	0.290969
202	1	3.641206	2.356788	4.255645
203	1	3.769285	3.190643	5.418448
204	1	2.643863	3.417674	6.277428
205	1	5.111445	1.078546	2.543102
206	1	4.860634	1.976112	3.622584
207	1	-1.568842	-6.156602	-0.078122
208	1	-0.367929	-6.734048	0.367065
209	1	0.380292	-7.451647	-0.624575
210	1	1.795461	-7.391631	-0.365281
211	1	2.598672	-7.148901	-1.522860
212	1	3.810231	-6.415123	-1.263565
213	1	4.035806	-5.403244	-2.255206
214	1	4.715928	-4.257351	-1.810019
215	1	0.138180	-6.149029	1.556449
216	1	1.435874	-6.599076	1.898112
217	1	2.364358	-7.075394	0.917718
218	1	3.741452	-6.722987	1.180975
219	1	4.452384	-6.276864	0.026299
220	1	5.445784	-5.290186	0.370827
221	1	5.454092	-4.276073	-0.615203
222	1	5.666816	-2.925638	-0.298956
223	1	1.877639	-6.094804	3.133027
224	1	3.244409	-6.124191	3.449274
225	1	4.244016	-6.295313	2.463245
226	1	5.390786	-5.492009	2.807772
227	1	5.955576	-4.871153	1.653096
228	1	6.545905	-3.578061	1.916354
229	1	6.241249	-2.579989	0.935959
230	1	3.290405	-5.196430	-3.444589
231	1	-2.774789	0.911725	-19.599081
232	1	-1.927875	1.246269	-20.728380
233	1	-0.518161	1.114785	-20.489196
234	1	0.450557	1.101463	-21.524329
235	1	1.850338	1.263139	-21.290251
236	1	2.723104	0.996901	-22.407268
237	1	-2.892685	-0.203658	-17.258564
238	1	-2.205068	0.396163	-18.375582
239	1	-0.861538	0.820960	-18.141504
240	1	0.017056	1.229206	-19.176636
241	1	1.249784	1.925598	-18.937452
242	1	2.159457	1.966582	-20.066752
243	1	3.983493	1.674005	-22.332203
244	1	4.054101	2.819925	-21.473223
245	1	3.215400	2.911020	-20.310420
246	1	3.161773	4.187359	-19.677359
247	1	4.996611	1.524470	-23.320089
248	1	-4.124592	1.341856	-19.355412
249	1	-4.852734	0.915796	-18.192609
250	1	-4.319756	-0.101087	-17.333629
251	1	-4.058690	3.288946	-21.067955
252	1	-4.597520	2.528556	-19.988474
253	1	5.768841	2.661858	-23.689179
254	1	5.460359	3.958189	-23.243992
255	1	5.545984	4.991365	-24.235633
256	1	4.607534	6.052315	-23.976338
257	1	3.912881	6.522978	-25.133917
258	1	2.579622	7.001229	-24.874623
259	1	1.651814	6.538676	-25.866263
260	1	0.333495	6.344588	-25.421076
261	1	4.687180	3.982462	-22.054608
262	1	4.218789	5.273647	-21.712945
263	1	4.003476	6.294726	-22.693340
264	1	2.862001	7.141846	-22.430083
265	1	2.067583	7.412681	-23.584758
266	1	0.675451	7.562169	-23.240231
267	1	-0.117167	6.929516	-24.226261
268	1	-1.299740	6.243624	-23.910013
269	1	3.548855	5.298848	-20.478031
270	1	2.710321	6.378564	-20.161783
271	1	2.213223	7.262526	-21.147813
272	1	0.866813	7.646658	-20.803286
273	1	0.028828	7.693906	-21.957961
274	1	-1.347192	7.337334	-21.694704
275	1	-1.930124	6.471797	-22.675099
276	1	1.960997	5.829592	-27.055647
277	1	0.560699	2.866411	8.734188
278	1	0.997655	2.067504	7.604889
279	1	1.041949	0.652365	7.844073
280	1	1.148823	-0.310532	6.808940
281	1	1.482783	-1.679472	7.043019
282	1	1.326797	-2.578510	5.926001
283	1	-0.560696	2.845123	11.074705
284	1	0.119742	2.237171	9.957687
285	1	0.707821	0.956667	10.191766
286	1	1.221838	0.135461	9.156633
287	1	2.065680	-1.001425	9.395817
288	1	2.219121	-1.898999	8.266518
289	1	2.154929	-3.745236	6.001066
290	1	3.300762	-3.673239	6.860046
291	1	3.287180	-2.829714	8.022849
292	1	4.547025	-2.618272	8.655910
293	1	2.132144	-4.769076	5.013180
294	1	0.820175	4.259125	8.977857
295	1	0.307134	4.928832	10.140660
296	1	-0.635831	4.273901	10.999640
297	1	2.760415	4.435114	7.265314
298	1	1.939091	4.875522	8.344796
299	1	3.356493	-5.394346	4.644090
300	1	4.604581	-4.927536	5.089277
301	1	5.640401	-4.884417	4.097637
302	1	6.576827	-3.821679	4.356931
303	1	6.957742	-3.074037	3.199352
304	1	7.267019	-1.691774	3.458646
305	1	6.693013	-0.828466	2.467006
306	1	6.336989	0.455622	2.912193
307	1	4.532814	-4.157313	6.278661
308	1	5.755973	-3.532466	6.620324
309	1	6.742482	-3.192229	5.639929
310	1	7.441558	-1.954542	5.903186
311	1	7.611819	-1.132677	4.748511
312	1	7.587570	0.267248	5.093038
313	1	6.861535	0.975322	4.107008
314	1	6.034330	2.063741	4.423256
315	1	5.697927	-2.864576	7.855238
316	1	6.665359	-1.898657	8.171486
317	1	7.480877	-1.295808	7.185456
318	1	7.695130	0.087837	7.529984
319	1	7.638128	0.925214	6.375308
320	1	7.113720	2.246416	6.638565
321	1	6.182594	2.717549	5.658170
322	1	6.027728	-1.223170	1.277622
323	1	-1.263107	2.633488	-24.321292
324	1	-0.435374	2.253960	-25.450592
325	1	0.445704	1.145681	-25.211408
326	1	1.106742	0.437429	-26.246540
327	1	2.192488	-0.460726	-26.012462
328	1	2.604593	-1.274833	-27.129480
329	1	-2.149590	1.946373	-21.980775
330	1	-1.240715	1.865448	-23.097793
331	1	-0.004044	1.190045	-22.863715
332	1	0.898805	0.838682	-23.898848
333	1	2.254751	0.431261	-23.659664
334	1	2.914099	-0.196787	-24.788963
335	1	3.965770	-1.715568	-27.054414
336	1	4.841551	-0.973190	-26.195434
337	1	4.326645	-0.304915	-25.032632
338	1	5.210528	0.617403	-24.399570
339	1	4.559255	-2.550160	-28.042300
340	1	-1.887204	3.905291	-24.077624
341	1	-2.698748	4.135755	-22.914821
342	1	-3.063548	3.047160	-22.055841
343	1	-0.436556	5.205722	-25.790167
344	1	-1.358291	5.068119	-24.710685
345	1	5.914618	-2.319980	-28.411391
346	1	6.636488	-1.199917	-27.966204
347	1	7.441309	-0.546429	-28.957844
348	1	7.557195	0.865263	-28.698550
349	1	7.415913	1.692370	-29.856129
350	1	6.837994	2.985549	-29.596834
351	1	5.861885	3.334828	-30.588475
352	1	4.809147	4.151761	-30.143288
353	1	6.118725	-0.625186	-26.776820
354	1	6.726176	0.606704	-26.435157
355	1	7.313925	1.468976	-27.415551
356	1	7.134956	2.879135	-27.152294
357	1	6.780409	3.639889	-28.306970
358	1	5.924496	4.747946	-27.962443
359	1	4.919235	4.881909	-28.948472
360	1	3.605590	5.260408	-28.632225
361	1	6.280560	1.107576	-25.200242
362	1	6.479161	2.460160	-24.883995
363	1	6.772885	3.430841	-25.870024
364	1	6.117944	4.668351	-25.525497
365	1	5.571894	5.305752	-26.680173
366	1	4.361961	6.051834	-26.416915
367	1	3.333820	5.873260	-27.397310
368	1	5.564259	2.620816	-31.777859
369	1	-1.680231	2.389042	13.456400
370	1	-0.801230	2.151259	12.327100
371	1	0.250602	1.203510	12.566285
372	1	1.019420	0.614009	11.531152
373	1	2.238453	-0.092733	11.765230
374	1	2.779210	-0.827705	10.648212
375	1	-2.441220	1.565103	15.796917
376	1	-1.531448	1.635218	14.679899
377	1	-0.200302	1.173074	14.913977
378	1	0.748139	0.975461	13.878844
379	1	2.152718	0.797304	14.118029
380	1	2.906638	0.286629	12.988729
381	1	4.194444	-1.037858	10.723278
382	1	4.935761	-0.161178	11.582258
383	1	4.317669	0.413000	12.745060
384	1	5.037293	1.468490	13.378122
385	1	4.917475	-1.763112	9.735392
386	1	-2.505578	3.540468	13.700068
387	1	-3.344023	3.633899	14.862871
388	1	-3.524246	2.500040	15.721851
389	1	-1.289328	5.062387	11.987526
390	1	-2.175736	4.774616	13.067007
391	1	6.216298	-1.312500	9.366301
392	1	6.743509	-0.088700	9.811489
393	1	7.429501	0.688601	8.819848
394	1	7.310923	2.100070	9.079142
395	1	7.035134	2.892538	7.921563
396	1	6.251805	4.072665	8.180858
397	1	5.231451	4.256136	7.189217
398	1	4.058372	4.888214	7.634405
399	1	6.138030	0.392745	11.000872
400	1	6.533942	1.707965	11.342536
401	1	6.971395	2.655381	10.362141
402	1	6.562253	4.016696	10.625398
403	1	6.087067	4.708540	9.470722
404	1	5.060091	5.660222	9.815250
405	1	4.046504	5.626519	8.829220
406	1	2.688417	5.783129	9.145467
407	1	6.011805	2.128465	12.577450
408	1	5.984558	3.495279	12.893697
409	1	6.114131	4.501115	11.907668
410	1	5.264019	5.613630	12.252195
411	1	4.620303	6.152220	11.097519
412	1	3.303870	6.688486	11.360777
413	1	2.319273	6.342753	10.380382
414	1	5.055688	3.502809	5.999834
415	1	1.025870	2.734646	-29.043504
416	1	1.325049	1.874602	-30.172803
417	1	1.135290	0.471544	-29.933619
418	1	1.081857	-0.495791	-30.968752
419	1	1.185417	-1.901068	-30.734674
420	1	0.883259	-2.762057	-31.851691
421	1	-0.083673	2.898638	-26.702987
422	1	0.487153	2.186768	-27.820005
423	1	0.855939	0.826796	-27.585927
424	1	1.227444	-0.067953	-28.621059
425	1	1.872181	-1.328467	-28.381875
426	1	1.875453	-2.239056	-29.511175
427	1	1.507579	-4.049409	-31.776626
428	1	2.649591	-4.167419	-30.917646
429	1	2.775345	-3.333211	-29.754843
430	1	4.052811	-3.332493	-29.121782
431	1	1.316210	-5.055464	-32.764512
432	1	1.511538	4.065475	-28.799835
433	1	1.116003	4.810639	-27.637033
434	1	0.077917	4.320236	-26.778052
435	1	3.454228	3.918984	-30.512378
436	1	2.716808	4.488846	-29.432897
437	1	2.420638	-5.874141	-33.133602
438	1	3.728634	-5.619615	-32.688415
439	1	4.757376	-5.747959	-33.680056
440	1	5.856285	-4.854257	-33.420761
441	1	6.355315	-4.179695	-34.578340
442	1	6.888378	-2.867388	-34.319046
443	1	6.464650	-1.921218	-35.310686
444	1	6.325331	-0.595991	-34.865499
445	1	3.784909	-4.848105	-31.499031
446	1	5.094387	-4.433595	-31.157368
447	1	6.123507	-4.260757	-32.137763
448	1	7.017178	-3.155348	-31.874506
449	1	7.320684	-2.372830	-33.029181
450	1	7.527704	-0.988084	-32.684654
451	1	6.928422	-0.169942	-33.670684
452	1	6.292099	1.040024	-33.354436
453	1	5.147313	-3.765280	-29.922454
454	1	6.260833	-2.972185	-29.606206
455	1	7.164625	-2.512126	-30.592236
456	1	7.604194	-1.182781	-30.247709
457	1	7.686109	-0.347473	-31.402384
458	1	7.386836	1.042136	-31.139127
459	1	6.546187	1.660416	-32.119522
460	1	5.743369	-2.200767	-36.500070
461	1	-2.887175	0.441496	18.178611
462	1	-2.107051	0.911166	17.049312
463	1	-0.694961	1.014035	17.288496
464	1	0.262683	1.160698	16.253363
465	1	1.616616	1.551072	16.487442
466	1	2.521344	1.432456	15.370424
467	1	-2.819459	-0.678055	20.519128
468	1	-2.240211	0.026980	19.402110
469	1	-0.985163	0.667590	19.636189
470	1	-0.185952	1.215179	18.601056
471	1	0.915008	2.105385	18.840240
472	1	1.805457	2.295871	17.710941
473	1	3.652768	2.308201	15.445489
474	1	3.533375	3.450069	16.304469
475	1	2.691136	3.401561	17.467272
476	1	2.427695	4.651568	18.100333
477	1	4.676674	2.327842	14.457603
478	1	-4.289441	0.643065	18.422280
479	1	-4.937323	0.102726	19.585083
480	1	-4.243898	-0.812304	20.444063
481	1	-4.545640	2.574351	16.709737
482	1	-4.951652	1.735491	17.789219
483	1	5.250697	3.577037	14.088513
484	1	4.732594	4.804720	14.533700
485	1	4.646610	5.837866	13.542060
486	1	3.545999	6.729471	13.801354
487	1	2.783221	7.079093	12.643775
488	1	1.389334	7.330854	12.903069
489	1	0.550541	6.721583	11.911429
490	1	-0.717699	6.312680	12.356616
491	1	3.966004	4.701114	15.723084
492	1	3.291032	5.897343	16.064747
493	1	2.910227	6.868914	15.084352
494	1	1.644647	7.516126	15.347610
495	1	0.816436	7.652201	14.192934
496	1	-0.581284	7.569990	14.537461
497	1	-1.258679	6.815251	13.551431
498	1	-2.311902	5.943675	13.867679
499	1	2.626119	5.811683	17.299661
500	1	1.620959	6.738279	17.615909
501	1	0.984851	7.528128	16.629879
502	1	-0.406481	7.684889	16.974407
503	1	-1.240779	7.593252	15.819731
504	1	-2.539127	7.014573	16.082988
505	1	-2.971290	6.064732	15.102593
506	1	0.972461	6.073218	10.722045
507	1	2.683544	1.152948	-33.765715
508	1	2.270058	0.341645	-34.895015
509	1	1.126238	-0.492774	-34.655831
510	1	0.391215	-1.123910	-35.690963
511	1	-0.551140	-2.171524	-35.456885
512	1	-1.381617	-2.549557	-36.573903
513	1	2.033735	2.067130	-31.425199
514	1	1.915236	1.162387	-32.542216
515	1	1.189191	-0.045249	-32.308138
516	1	0.800735	-0.932771	-33.343271
517	1	0.337503	-2.270678	-33.104087
518	1	-0.317315	-2.903448	-34.233386
519	1	-1.878352	-3.891311	-36.498838
520	1	-1.172884	-4.797088	-35.639857
521	1	-0.483856	-4.310304	-34.477055
522	1	0.401061	-5.231628	-33.843993
523	1	-2.736809	-4.449720	-37.486723
524	1	3.980104	1.723834	-33.522047
525	1	4.243984	2.525136	-32.359244
526	1	3.171433	2.934710	-31.500264
527	1	5.219337	0.220568	-35.234590
528	1	5.120028	1.147212	-34.155108
529	1	-2.562963	-5.813453	-37.855814
530	1	-1.473760	-6.581095	-37.410627
531	1	-0.854167	-7.412291	-38.402267
532	1	0.551514	-7.586548	-38.142973
533	1	1.383762	-7.479645	-39.300552
534	1	2.699769	-6.955783	-39.041257
535	1	3.089177	-5.994978	-40.032898
536	1	3.949011	-4.976980	-39.587711
537	1	-0.878077	-6.087581	-36.221243
538	1	0.327596	-6.745533	-35.879580
539	1	1.164785	-7.368492	-36.859975
540	1	2.581146	-7.248083	-36.596717
541	1	3.355932	-6.925349	-37.751393
542	1	4.498488	-6.116064	-37.406866
543	1	4.673974	-5.117215	-38.392895
544	1	5.106556	-3.820373	-38.076648
545	1	0.846495	-6.321045	-34.644665
546	1	2.189693	-6.575497	-34.328418
547	1	3.147375	-6.909173	-35.314447
548	1	4.410950	-6.306050	-34.969920
549	1	5.070421	-5.786869	-36.124596
550	1	5.865975	-4.608875	-35.861338
551	1	5.730139	-3.574220	-36.841733
552	1	2.388105	-5.668034	-41.222282
553	1	-2.317399	-1.777740	22.900823
554	1	-2.116228	-0.889644	21.771523
555	1	-1.212857	0.200540	22.010708
556	1	-0.655704	0.993114	20.975575
557	1	-0.000059	2.240373	21.209653
558	1	0.711885	2.811108	20.092635
559	1	-1.462649	-2.503950	25.241340
560	1	-1.570385	-1.597862	24.124322
561	1	-1.163771	-0.248717	24.358400
562	1	-1.005611	0.707095	23.323267
563	1	-0.885782	2.117847	23.562452
564	1	-0.406771	2.892272	22.433152
565	1	0.863240	4.233831	20.167701
566	1	-0.043392	4.938201	21.026681
567	1	-0.591477	4.296858	22.189484
568	1	-1.675867	4.972148	22.822545
569	1	1.557925	4.986281	19.179815
570	1	-3.433652	-2.650069	23.144492
571	1	-3.492277	-3.491663	24.307294
572	1	-2.351926	-3.624769	25.166274
573	1	-5.004641	-1.497898	21.431949
574	1	-4.680404	-2.371626	22.511430
575	1	1.053905	6.265325	18.810724
576	1	-0.190681	6.741396	19.255912
577	1	-0.995728	7.394605	18.264271
578	1	-2.401074	7.217668	18.523566
579	1	-3.181440	6.909293	17.365987
580	1	-4.328110	6.077757	17.625281
581	1	-4.469162	5.050680	16.633640
582	1	-5.052110	3.852428	17.078828
583	1	-0.646635	6.116496	20.445295
584	1	-1.977124	6.457594	20.786959
585	1	-2.941846	6.855431	19.806564
586	1	-4.285047	6.390257	20.069821
587	1	-4.956616	5.886824	18.915145
588	1	-5.864946	4.821312	19.259673
589	1	-5.789291	3.809990	18.273643
590	1	-5.889516	2.446583	18.589891
591	1	-2.375637	5.918489	22.021873
592	1	-3.740151	5.834654	22.338121
593	1	-4.750490	5.922455	21.352091
594	1	-5.826840	5.026995	21.696618
595	1	-6.338307	4.361523	20.541942
596	1	-6.819587	3.024009	20.805200
597	1	-6.433371	2.054576	19.824805
598	1	-3.709202	4.906269	15.444257
599	1	2.689809	-1.138254	-38.487927
600	1	1.818112	-1.401555	-39.617226
601	1	0.424117	-1.153847	-39.378042
602	1	-0.540175	-1.060394	-40.413175
603	1	-1.948534	-1.105661	-40.179097
604	1	-2.796270	-0.768102	-41.296115
605	1	2.899617	-0.036456	-36.147410
606	1	2.164714	-0.577308	-37.264428
607	1	0.790635	-0.889449	-37.030350
608	1	-0.118734	-1.223577	-38.065482
609	1	-1.404869	-1.815552	-37.826298
610	1	-2.314813	-1.781106	-38.955598
611	1	-4.108376	-1.338565	-41.221049
612	1	-4.273585	-2.474709	-40.362069
613	1	-3.445301	-2.634907	-39.199266
614	1	-3.497494	-3.911307	-38.566205
615	1	-5.105641	-1.105692	-42.208935
616	1	3.999381	-1.678626	-38.244258
617	1	4.760288	-1.314294	-37.081456
618	1	4.313301	-0.256787	-36.222476
619	1	3.772553	-3.613582	-39.956801
620	1	4.372469	-2.900397	-38.877320
621	1	-5.969359	-2.175263	-42.578025
622	1	-5.769227	-3.492679	-42.132838
623	1	-5.940070	-4.515223	-43.124479
624	1	-5.092649	-5.650204	-42.865184
625	1	-4.439335	-6.176746	-44.022763
626	1	-3.150233	-6.763704	-43.763469
627	1	-2.187325	-6.379529	-44.755109
628	1	-0.857464	-6.295218	-44.309922
629	1	-5.000709	-3.580860	-40.943454
630	1	-4.640792	-4.906383	-40.601791
631	1	-4.510727	-5.941779	-41.582186
632	1	-3.443281	-6.880467	-41.318929
633	1	-2.674005	-7.216123	-42.473604
634	1	-1.299022	-7.480319	-42.129077
635	1	-0.456761	-6.915438	-43.115107
636	1	0.778523	-6.329776	-42.798859
637	1	-3.975242	-4.986945	-39.366877
638	1	-3.228948	-6.132357	-39.050629
639	1	-2.806717	-7.054429	-40.036659
640	1	-1.496719	-7.548680	-39.692132
641	1	-0.665521	-7.665122	-40.846807
642	1	0.735291	-7.423661	-40.583550
643	1	1.387859	-6.609341	-41.563945
644	1	-2.436759	-5.647288	-45.944493
645	1	-0.321535	-2.902984	27.623034
646	1	-0.823113	-2.142982	26.493735
647	1	-0.984381	-0.736364	26.732919
648	1	-1.170582	0.214383	25.697786
649	1	-1.616698	1.550986	25.931865
650	1	-1.535657	2.459850	24.814847
651	1	0.794250	-2.788955	29.963551
652	1	0.065829	-2.239406	28.846533
653	1	-0.626214	-1.011968	29.080612
654	1	-1.206434	-0.236123	28.045479
655	1	-2.141477	0.827022	28.284663
656	1	-2.368680	1.708817	27.155364
657	1	-2.457512	3.554032	24.889912
658	1	-3.593455	3.387446	25.748892
659	1	-3.510105	2.547940	26.911695
660	1	-4.748128	2.232951	27.544756
661	1	-2.519545	4.576245	23.902026
662	1	-0.464852	-4.312395	27.866703
663	1	0.101858	-4.937341	29.029506
664	1	0.987382	-4.206612	29.888486
665	1	-2.383869	-4.648365	26.154160
666	1	-1.528913	-5.019284	27.233642
667	1	-3.791443	5.098036	23.532936
668	1	-4.996614	4.529529	23.978123
669	1	-6.025311	4.400828	22.986483
670	1	-6.870566	3.264232	23.245777
671	1	-7.188295	2.487628	22.088198
672	1	-7.382107	1.084510	22.347492
673	1	-6.738618	0.271672	21.355852
674	1	-6.277537	-0.978544	21.801039
675	1	-4.861345	3.767888	25.167507
676	1	-6.028591	3.043950	25.509170
677	1	-6.983556	2.623231	24.528775
678	1	-7.577795	1.331930	24.792033
679	1	-7.679450	0.498794	23.637357
680	1	-7.539418	-0.894321	23.981884
681	1	-6.757270	-1.539875	22.995854
682	1	-5.842819	-2.556096	23.312102
683	1	-5.915466	2.383155	26.744085
684	1	-6.799634	1.340480	27.060332
685	1	-7.562458	0.672203	26.074302
686	1	-7.661458	-0.724428	26.418830
687	1	-7.535345	-1.554215	25.264154
688	1	-6.903387	-2.827480	25.527411
689	1	-5.936462	-3.219932	24.547016
690	1	-6.108284	0.720084	20.166468
