The data file data.cnt:

 510 atoms
 1 atom types
 -34.1 34.1 xlo xhi
 -34.1 34.1 ylo yhi
 -119.8 107.1 zlo zhi

Atoms

1	1	-2.989410	1.396542	-9.873812
2	1	-2.548745	1.901965	-11.161842
3	1	-2.912630	1.276776	-12.422044
4	1	-0.501936	-3.261128	-9.711167
5	1	-3.000131	-0.782566	-8.639703
6	1	-3.053528	-0.035219	-9.854408
7	1	-2.930102	-0.765066	-11.064152
8	1	-3.189729	-0.139767	-12.325322
9	1	-1.890138	-2.573185	-7.259656
10	1	-2.265419	-2.009652	-8.520826
11	1	-1.727502	-2.518136	-9.730570
12	1	-2.318909	-2.058119	-10.945275
13	1	-3.420351	-1.049201	-13.409849
14	1	-2.823953	-2.356097	-13.281220
15	1	-2.092263	-2.787765	-12.136137
16	1	-0.937836	-3.639202	-12.209780
17	1	-0.092745	-3.669912	-11.037915
18	1	1.268084	-3.690663	-11.474781
19	1	-3.836877	-0.709093	-14.738092
20	1	-3.101568	1.963958	-8.547064
21	1	-3.546047	1.244541	-7.375199
22	1	-3.480475	-0.188409	-7.448842
23	1	-3.528657	-1.036576	-6.303758
24	1	-2.774212	-2.259065	-6.175130
25	1	-2.723207	-2.794383	-4.846887
26	1	-2.361983	3.106455	-8.110198
27	1	-3.760466	-1.625763	-15.822758
28	1	-2.996571	-2.793702	-15.758944
29	1	-2.559852	-3.094293	-14.464057
30	1	-1.383178	-3.826171	-14.706787
31	1	-0.565853	-3.984941	-13.561313
32	1	0.772648	-3.950058	-14.021482
33	1	1.580594	-3.748932	-12.876008
34	1	2.717549	-2.956758	-13.118738
35	1	0.090504	-3.298289	-5.874904
36	1	-0.558769	-3.130710	-7.162934
37	1	0.163188	-3.175994	-8.423137
38	1	3.140486	1.012051	-5.712260
39	1	2.043560	-2.331750	-4.640796
40	1	1.399306	-2.714262	-5.855501
41	1	1.996545	-2.276979	-7.065245
42	1	1.553788	-2.789201	-8.326415
43	1	3.147264	-0.537247	-3.260749
44	1	2.811537	-1.125203	-4.521919
45	1	3.025194	-0.416500	-5.731663
46	1	2.878830	-1.151317	-6.946368
47	1	2.470185	-2.588014	-9.410941
48	1	3.371473	-1.469378	-9.282313
49	1	3.429652	-0.621838	-8.137230
50	1	3.673766	0.791687	-8.210872
51	1	3.322667	1.561006	-7.039007
52	1	2.731641	2.786964	-7.475874
53	1	2.352689	-3.112763	-10.739184
54	1	-0.366559	-3.652738	-4.548156
55	1	0.475745	-3.727867	-3.376291
56	1	1.727516	-3.027357	-3.449934
57	1	2.507412	-2.690501	-2.304851
58	1	3.262440	-1.468372	-2.176222
59	1	3.718199	-1.182976	-0.847979
60	1	-1.719315	-3.503282	-4.111290
61	1	3.138018	-2.633828	-11.823850
62	1	3.840042	-1.427685	-11.760036
63	1	3.913162	-0.902583	-10.465149
64	1	4.040417	0.477276	-10.707879
65	1	3.816249	1.279135	-9.562405
66	1	3.185485	2.460210	-10.022574
67	1	2.643749	3.092468	-8.877100
68	1	1.426203	3.754123	-9.119830
69	1	2.908328	1.558374	-1.875996
70	1	3.049343	0.902818	-3.164027
71	1	2.766430	1.568577	-4.424229
72	1	-2.311605	2.354438	-1.713352
73	1	1.169318	2.871565	-0.641888
74	1	1.799899	2.466909	-1.856593
75	1	1.141410	2.804997	-3.066337
76	1	1.797700	2.638594	-4.327507
77	1	-0.929475	3.054501	0.738159
78	1	-0.253419	3.017715	-0.523011
79	1	-0.982750	2.891276	-1.732755
80	1	-0.260216	3.089576	-2.947460
81	1	1.207329	3.367786	-5.412034
82	1	-0.196528	3.672503	-5.283405
83	1	-0.980341	3.344866	-4.138322
84	1	-2.353468	2.929934	-4.211964
85	1	-2.884011	2.271417	-3.040099
86	1	-3.715343	1.193840	-3.476966
87	1	1.729118	3.497798	-6.740276
88	1	3.429967	1.308506	-0.549248
89	1	3.119829	2.095231	0.622617
90	1	1.932804	2.900598	0.548974
91	1	1.282283	3.446978	1.694057
92	1	-0.148587	3.574570	1.822686
93	1	-0.607903	3.854204	3.150928
94	1	3.902306	0.032112	-0.112382
95	1	0.949136	3.985392	-7.824943
96	1	-0.443698	4.072756	-7.761128
97	1	-0.945925	3.902911	-6.466241
98	1	-2.236606	3.398582	-6.708971
99	1	-2.853100	2.838972	-5.563497
100	1	-3.626503	1.745972	-6.023666
101	1	-3.949112	0.978409	-4.878192
102	1	-3.995275	-0.406536	-5.120922
103	1	2.587689	2.047136	-13.872719
104	1	2.842173	1.426752	-15.160750
105	1	2.446218	2.032139	-16.420952
106	1	-2.690805	1.909573	-13.710075
107	1	0.644238	3.032845	-12.638611
108	1	1.336330	2.745814	-13.853316
109	1	0.628515	2.962396	-15.063060
110	1	1.303869	2.914418	-16.324230
111	1	-1.453902	2.842547	-11.258564
112	1	-0.781963	2.925638	-12.519734
113	1	-1.477537	2.672482	-13.729478
114	1	-0.801334	2.995172	-14.944183
115	1	0.594086	3.527986	-17.408757
116	1	-0.841512	3.580190	-17.280128
117	1	-1.555208	3.119379	-16.135045
118	1	-2.833565	2.468650	-16.208688
119	1	-3.239578	1.726845	-15.036823
120	1	-3.867709	0.519477	-15.473689
121	1	1.084744	3.748035	-18.736999
122	1	3.145234	1.893240	-12.545972
123	1	2.701135	2.612891	-11.374107
124	1	1.390618	3.196151	-11.447749
125	1	0.653889	3.619162	-10.302666
126	1	-0.777041	3.492253	-10.174037
127	1	-1.278495	3.686446	-8.845795
128	1	3.835401	0.720229	-12.109105
129	1	0.230959	4.090338	-19.821666
130	1	-1.155434	3.930545	-19.757852
131	1	-1.619807	3.674740	-18.462965
132	1	-2.801237	2.950565	-18.705695
133	1	-3.309305	2.290948	-17.560221
134	1	-3.877695	1.078622	-18.020389
135	1	-4.059793	0.266175	-16.874915
136	1	-3.860838	-1.105182	-17.117646
137	1	-2.696056	1.902152	2.122912
138	1	-2.173117	2.321881	0.834881
139	1	-2.641616	1.770717	-0.425321
140	1	-1.069534	-3.121377	2.285556
141	1	-3.091145	-0.240867	3.357020
142	1	-3.011824	0.504174	2.142315
143	1	-3.019127	-0.235999	0.932571
144	1	-3.164336	0.425302	-0.328599
145	1	-2.314553	-2.199261	4.737067
146	1	-2.584500	-1.578348	3.475897
147	1	-2.144755	-2.173775	2.266153
148	1	-2.645704	-1.616614	1.051448
149	1	-3.551823	-0.429164	-1.413126
150	1	-3.195405	-1.820794	-1.284497
151	1	-2.551371	-2.374806	-0.139414
152	1	-1.565310	-3.416596	-0.213056
153	1	-0.738900	-3.595954	0.958809
154	1	0.596911	-3.856517	0.521942
155	1	-3.901795	-0.020891	-2.741368
156	1	-2.706325	2.480456	3.449659
157	1	-3.270780	1.850763	4.621524
158	1	-3.459103	0.428729	4.547882
159	1	-3.656201	-0.397625	5.692965
160	1	-3.129322	-1.734062	5.821594
161	1	-3.173583	-2.269980	7.149836
162	1	-1.776736	3.474512	3.886526
163	1	-3.988343	-0.936659	-3.826035
164	1	-3.442536	-2.221070	-3.762220
165	1	-3.065714	-2.594010	-2.467333
166	1	-2.036657	-3.522044	-2.710063
167	1	-1.260175	-3.822552	-1.564589
168	1	0.063476	-4.024415	-2.024758
169	1	0.894235	-3.969019	-0.879284
170	1	2.153138	-3.389910	-1.122014
171	1	0.671116	-3.230558	-17.871627
172	1	0.002460	-3.180183	-19.159658
173	1	0.721079	-3.097356	-20.419860
174	1	2.912610	1.550355	-17.708983
175	1	2.422962	-1.934541	-16.637519
176	1	1.856319	-2.424738	-17.852224
177	1	2.367020	-1.888926	-19.061968
178	1	2.021601	-2.471241	-20.323138
179	1	3.192679	0.026566	-15.257472
180	1	2.965974	-0.611408	-16.518642
181	1	3.051217	0.123877	-17.728386
182	1	3.036819	-0.625236	-18.943091
183	1	2.888113	-2.111499	-21.407665
184	1	3.577858	-0.851372	-21.279036
185	1	3.485563	-0.006866	-20.133953
186	1	3.476408	1.427554	-20.207596
187	1	2.995062	2.122843	-19.035730
188	1	2.196972	3.225267	-19.472597
189	1	2.865062	-2.648747	-22.735907
190	1	0.283773	-3.660100	-16.544880
191	1	1.126117	-3.585413	-15.373015
192	1	2.234629	-2.675002	-15.446657
193	1	2.942842	-2.205808	-14.301574
194	1	3.470358	-0.869622	-14.172945
195	1	3.868603	-0.508280	-12.844703
196	1	-1.074127	-3.751703	-16.108013
197	1	3.553552	-2.038745	-23.820574
198	1	4.031716	-0.727648	-23.756760
199	1	4.011026	-0.197883	-22.461872
200	1	3.892788	1.182778	-22.704603
201	1	3.530638	1.932495	-21.559129
202	1	2.701354	2.983728	-22.019297
203	1	2.056548	3.510467	-20.873823
204	1	0.741350	3.946884	-21.116553
205	1	-0.492948	-3.262499	6.121820
206	1	-1.102461	-2.982977	4.833789
207	1	-0.399824	-3.154950	3.573587
208	1	3.269793	0.441983	6.284464
209	1	1.600018	-2.655774	7.355928
210	1	0.898375	-2.918595	6.141223
211	1	1.563406	-2.593566	4.931479
212	1	1.037208	-3.019620	3.670309
213	1	3.003068	-1.084198	8.735975
214	1	2.568856	-1.603683	7.474805
215	1	2.904222	-0.943804	6.265061
216	1	2.630485	-1.641261	5.050356
217	1	1.974726	-2.983301	2.585782
218	1	3.059271	-2.041266	2.714411
219	1	3.266098	-1.217293	3.859494
220	1	3.755818	0.130972	3.785851
221	1	3.545987	0.950175	4.957717
222	1	3.180574	2.261189	4.520850
223	1	1.766474	-3.479081	1.257540
224	1	-1.005387	-3.530730	7.448567
225	1	-0.189558	-3.753318	8.620432
226	1	1.166184	-3.284694	8.546790
227	1	1.993284	-3.090749	9.691873
228	1	2.952126	-2.021035	9.820502
229	1	3.451095	-1.820544	11.148744
230	1	-2.310540	-3.144906	7.885434
231	1	2.623995	-3.146245	0.172873
232	1	3.527844	-2.082913	0.236687
233	1	3.692478	-1.578954	1.531575
234	1	4.061233	-0.243206	1.288844
235	1	3.982083	0.585627	2.434318
236	1	3.569635	1.859475	1.974150
237	1	3.147973	2.577409	3.119624
238	1	2.066292	3.443535	2.876894
239	1	-3.188937	0.847099	-21.870535
240	1	-2.844377	1.422353	-23.158566
241	1	-3.092228	0.742762	-24.418768
242	1	0.081416	-3.298525	-21.707891
243	1	-2.814954	-1.299703	-20.636427
244	1	-2.999394	-0.573507	-21.851132
245	1	-2.749112	-1.270120	-23.060876
246	1	-3.115008	-0.700449	-24.322046
247	1	-1.406399	-2.866347	-19.256380
248	1	-1.875234	-2.377882	-20.517550
249	1	-1.256029	-2.783462	-21.727294
250	1	-1.919332	-2.435027	-22.941999
251	1	-3.181528	-1.636308	-25.406573
252	1	-2.363868	-2.817451	-25.277944
253	1	-1.567486	-3.113228	-24.132861
254	1	-0.280926	-3.747587	-24.206503
255	1	0.556322	-3.628686	-23.034638
256	1	1.899456	-3.408973	-23.471505
257	1	-3.651535	-1.375040	-26.734815
258	1	-3.399465	1.385820	-20.543788
259	1	-3.710016	0.599257	-19.371923
260	1	-3.392608	-0.799634	-19.445565
261	1	-3.290362	-1.642993	-18.300482
262	1	-2.332030	-2.713165	-18.171853
263	1	-2.187361	-3.231082	-16.843611
264	1	-2.873097	2.640898	-20.106921
265	1	-3.414563	-2.263840	-27.819482
266	1	-2.456555	-3.278650	-27.755667
267	1	-1.973645	-3.497458	-26.460780
268	1	-0.686287	-4.010209	-26.703510
269	1	0.146230	-4.022258	-25.558036
270	1	1.457570	-3.751724	-26.018205
271	1	2.217345	-3.411180	-24.872731
272	1	3.196667	-2.430806	-25.115461
273	1	3.137685	1.020700	10.120728
274	1	3.160805	0.350548	8.832697
275	1	2.999816	1.055783	7.572495
276	1	-1.859853	2.725407	10.283372
277	1	1.657699	2.620158	11.354836
278	1	2.206976	2.110576	10.140131
279	1	1.618482	2.559559	8.930387
280	1	2.235108	2.279956	7.669217
281	1	-0.375877	3.170587	12.734883
282	1	0.283079	3.015077	11.473713
283	1	-0.457119	3.019324	10.263969
284	1	0.289069	3.087010	9.049264
285	1	1.782678	3.101884	6.584690
286	1	0.454624	3.649551	6.713319
287	1	-0.374705	3.465371	7.858402
288	1	-1.799504	3.299259	7.784759
289	1	-2.437927	2.744698	8.956624
290	1	-3.446367	1.830733	8.519758
291	1	2.319222	3.137778	5.256448
292	1	3.607045	0.682703	11.447475
293	1	3.440604	1.511810	12.619340
294	1	2.414326	2.514007	12.545698
295	1	1.870431	3.166607	13.690781
296	1	0.484531	3.544694	13.819410
297	1	0.081769	3.900994	15.147652
298	1	3.846734	-0.657012	11.884342
299	1	1.637523	3.755360	4.171781
300	1	0.281964	4.087139	4.235595
301	1	-0.242353	4.008585	5.530482
302	1	-1.601776	3.739930	5.287752
303	1	-2.307347	3.297892	6.433226
304	1	-3.261489	2.358523	5.973058
305	1	-3.714483	1.659935	7.118532
306	1	-4.004316	0.304870	6.875801
307	1	2.185832	2.471647	-25.869443
308	1	2.545799	1.905906	-27.157474
309	1	2.049228	2.431920	-28.417676
310	1	-2.985550	1.404773	-25.706799
311	1	0.098937	3.098936	-24.635335
312	1	0.830819	2.938540	-25.850040
313	1	0.095892	3.026818	-27.059784
314	1	0.769115	3.098768	-28.320954
315	1	-1.932695	2.541376	-23.255288
316	1	-1.285964	2.741737	-24.516458
317	1	-1.925949	2.369809	-25.726202
318	1	-1.317302	2.806761	-26.940907
319	1	-0.037803	3.577457	-29.405481
320	1	-1.460084	3.375509	-29.276852
321	1	-2.081263	2.795987	-28.131769
322	1	-3.224728	1.929884	-28.205411
323	1	-3.493466	1.128073	-27.033546
324	1	-3.898682	-0.171190	-27.470413
325	1	0.406325	3.880636	-30.733723
326	1	2.761786	2.418553	-24.542695
327	1	2.197662	3.048542	-23.370830
328	1	0.804787	3.391389	-23.444473
329	1	0.004972	3.677755	-22.299390
330	1	-1.381107	3.300329	-22.170761
331	1	-1.908960	3.402985	-20.842519
332	1	3.648116	1.385740	-24.105829
333	1	-0.494467	4.066904	-31.818390
334	1	-1.830905	3.664969	-31.754575
335	1	-2.242850	3.331233	-30.459688
336	1	-3.277948	2.409942	-30.702418
337	1	-3.661644	1.671019	-29.556944
338	1	-4.007181	0.377418	-30.017113
339	1	-4.043053	-0.454413	-28.871639
340	1	-3.605223	-1.769141	-29.114369
341	1	-2.318084	2.348060	14.119635
342	1	-1.729284	2.668923	12.831605
343	1	-2.287691	2.209081	11.571403
344	1	-1.603563	-2.883658	14.282280
345	1	-3.085140	0.308391	15.353744
346	1	-2.875590	1.027743	14.139039
347	1	-3.013393	0.300474	12.929295
348	1	-3.039627	0.977022	11.668125
349	1	-2.666323	-1.756310	16.733791
350	1	-2.822465	-1.097505	15.472621
351	1	-2.494692	-1.761188	14.262877
352	1	-2.889460	-1.124371	13.048172
353	1	-3.571816	0.204343	10.583598
354	1	-3.466566	-1.228343	10.712227
355	1	-2.930402	-1.887310	11.857310
356	1	-2.143655	-3.086757	11.783667
357	1	-1.361864	-3.409132	12.955532
358	1	-0.092996	-3.901331	12.518666
359	1	-3.844250	0.667966	9.255355
360	1	-2.226141	2.919101	15.446383
361	1	-2.892857	2.398897	16.618248
362	1	-3.329163	1.032412	16.544605
363	1	-3.668990	0.253806	17.689689
364	1	-3.386214	-1.154634	17.818317
365	1	-3.524351	-1.674331	19.146560
366	1	-1.135724	3.733518	15.883250
367	1	-4.091041	-0.218157	8.170689
368	1	-3.780453	-1.578728	8.234503
369	1	-3.475355	-2.012311	9.529390
370	1	-2.626213	-3.107374	9.286660
371	1	-1.914945	-3.540187	10.432134
372	1	-0.647688	-3.972461	9.971965
373	1	0.179809	-4.064534	11.117439
374	1	1.521149	-3.716665	10.874709
375	1	1.230665	-3.061432	-29.868351
376	1	0.563613	-3.129842	-31.156382
377	1	1.256338	-2.921504	-32.416584
378	1	2.593319	2.039998	-29.705707
379	1	2.726317	-1.476614	-28.634243
380	1	2.255069	-2.059111	-29.848948
381	1	2.663203	-1.441587	-31.058692
382	1	2.425963	-2.075718	-32.319862
383	1	3.137888	0.589545	-27.254196
384	1	3.027321	-0.078422	-28.515366
385	1	2.981474	0.660366	-29.725110
386	1	3.099494	-0.079532	-30.939815
387	1	3.215396	-1.568712	-33.404388
388	1	3.671948	-0.206645	-33.275760
389	1	3.432076	0.608321	-32.130677
390	1	3.169939	2.018616	-32.204319
391	1	2.573452	2.618053	-31.032454
392	1	1.593348	3.562341	-31.469321
393	1	3.287511	-2.101597	-34.732631
394	1	0.925199	-3.552586	-28.541603
395	1	1.741145	-3.330427	-27.369738
396	1	2.671605	-2.238690	-27.443381
397	1	3.285907	-1.651884	-26.298298
398	1	3.569355	-0.243579	-26.169669
399	1	3.897586	0.182369	-24.841426
400	1	-0.395227	-3.882373	-28.104737
401	1	3.857552	-1.379673	-35.817297
402	1	4.096851	-0.004772	-35.753483
403	1	3.983000	0.513028	-34.458596
404	1	3.622979	1.851157	-34.701326
405	1	3.134214	2.525202	-33.555852
406	1	2.132438	3.413598	-34.016021
407	1	1.404800	3.818286	-32.870547
408	1	0.033229	4.015768	-33.113277
409	1	-1.060929	-3.124312	18.118543
410	1	-1.611551	-2.741619	16.830513
411	1	-0.950288	-3.034884	15.570311
412	1	3.296475	-0.141957	18.281187
413	1	1.106258	-2.896444	19.352651
414	1	0.369247	-3.031325	18.137947
415	1	1.081198	-2.828752	16.928202
416	1	0.488074	-3.155263	15.667032
417	1	2.764618	-1.597120	20.732698
418	1	2.245549	-2.031830	19.471528
419	1	2.692098	-1.441487	18.261784
420	1	2.299580	-2.079693	17.047079
421	1	1.417289	-3.284953	14.582506
422	1	2.651049	-2.549086	14.711134
423	1	3.000033	-1.774542	15.856218
424	1	3.719990	-0.533853	15.782575
425	1	3.658012	0.309521	16.954440
426	1	3.529682	1.664444	16.517573
427	1	1.124817	-3.736205	13.254263
428	1	-1.612660	-3.297907	19.445291
429	1	-0.848913	-3.660966	20.617156
430	1	0.568250	-3.438938	20.543513
431	1	1.416594	-3.393990	21.688596
432	1	2.549156	-2.510265	21.817225
433	1	3.075675	-2.400971	23.145468
434	1	-2.829246	-2.687823	19.882157
435	1	2.027615	-3.559914	12.169597
436	1	3.104920	-2.672766	12.233411
437	1	3.355901	-2.205769	13.528298
438	1	3.954583	-0.956054	13.285568
439	1	4.022934	-0.126261	14.431042
440	1	3.841749	1.200379	13.970873
441	1	3.553393	1.981455	15.116347
442	1	2.641529	3.024867	14.873617
443	1	-3.288377	0.271070	-33.867259
444	1	-3.050736	0.898099	-35.155289
445	1	-3.174773	0.185436	-36.415491
446	1	0.662212	-3.232394	-33.704614
447	1	-2.541427	-1.776047	-32.633150
448	1	-2.851120	-1.093795	-33.847855
449	1	-2.481839	-1.735310	-35.057600
450	1	-2.942519	-1.239146	-36.318769
451	1	-0.878518	-3.069545	-31.253103
452	1	-1.426193	-2.671478	-32.514273
453	1	-0.745135	-2.961427	-33.724018
454	1	-1.459515	-2.735508	-34.938722
455	1	-2.842849	-2.172058	-37.403296
456	1	-1.829590	-3.190377	-37.274667
457	1	-0.993511	-3.340978	-36.129584
458	1	0.384800	-3.738349	-36.203227
459	1	1.187927	-3.473570	-35.031362
460	1	2.471212	-3.020288	-35.468228
461	1	-3.351584	-1.997829	-38.731539
462	1	-3.590666	0.764185	-32.540511
463	1	-3.757542	-0.064834	-31.368646
464	1	-3.198260	-1.385762	-31.442289
465	1	-2.948795	-2.197843	-30.297205
466	1	-1.816655	-3.082108	-30.168577
467	1	-1.582862	-3.566369	-28.840334
468	1	-3.294035	2.092453	-32.103645
469	1	-2.961489	-2.830864	-39.816205
470	1	-1.839437	-3.660694	-39.752391
471	1	-1.325494	-3.790852	-38.457504
472	1	0.032144	-4.068382	-38.700234
473	1	0.853722	-3.933332	-37.554760
474	1	2.096744	-3.435638	-38.014929
475	1	2.784502	-2.966365	-36.869455
476	1	3.575453	-1.828559	-37.112185
477	1	3.268563	0.450991	22.117451
478	1	3.173062	-0.212724	20.829420
479	1	3.139048	0.509852	19.569218
480	1	-1.349727	3.010836	22.280095
481	1	2.094050	2.286514	23.351559
482	1	2.544784	1.688001	22.136854
483	1	2.044755	2.233786	20.927110
484	1	2.602364	1.849758	19.665940
485	1	0.189519	3.187160	24.731606
486	1	0.810692	2.917808	23.470436
487	1	0.082859	3.052607	22.260692
488	1	0.829282	2.987555	21.045987
489	1	2.302076	2.738626	18.581414
490	1	1.091508	3.512053	18.710042
491	1	0.242692	3.477111	19.855125
492	1	-1.189061	3.565033	19.781483
493	1	-1.915325	3.131834	20.953348
494	1	-3.069223	2.410166	20.516481
495	1	2.836534	2.679275	17.253171
496	1	3.670913	0.035472	23.444199
497	1	3.653392	0.880939	24.616064
498	1	2.820072	2.048511	24.542421
499	1	2.399873	2.786847	25.687504
500	1	1.102442	3.403564	25.816133
501	1	0.768874	3.825346	27.144375
502	1	3.670427	-1.325515	23.881065
503	1	2.274514	3.407462	16.168504
504	1	0.998775	3.973242	16.232319
505	1	0.468825	3.988445	17.527206
506	1	-0.916672	3.963897	17.284476
507	1	-1.689175	3.653304	18.429950
508	1	-2.794110	2.897049	17.969781
509	1	-3.363271	2.289362	19.115255
510	1	-3.887677	1.006707	18.872525
