The data file data.cnt:

 80 atoms
 1 atom types
 -4.6 4.8 xlo xhi
 -4.8 5.7 ylo yhi
 -20.9 -2.2 zlo zhi

Atoms

1	1	1.027149	-1.922563	-10.177814
2	1	0.932057	-1.718452	-11.593985
3	1	1.687549	-0.676439	-12.223417
4	1	2.000243	-0.638339	-13.611368
5	1	1.793505	-0.826274	-8.111974
6	1	1.541958	-0.765995	-9.503975
7	1	1.641293	0.520141	-10.120298
8	1	1.899113	0.541080	-11.512299
9	1	2.074540	0.323627	-6.012905
10	1	1.771405	0.409291	-7.400856
11	1	1.184878	1.554955	-8.030288
12	1	1.310185	1.742043	-9.446459
13	1	1.844017	1.248586	-3.714915
14	1	1.547045	1.289095	-5.114238
15	1	0.453148	1.962084	-5.730520
16	1	0.283100	2.208898	-7.129843
17	1	2.802638	-0.848304	-16.384971
18	1	3.124543	0.304355	-15.573525
19	1	2.687923	0.448684	-14.220057
20	1	2.614696	1.713618	-13.545690
21	1	2.113890	1.768078	-12.205268
22	1	1.547236	2.947838	-11.614743
23	1	0.961474	2.856258	-10.291120
24	1	-0.180156	3.680730	-9.971829
25	1	3.633620	1.497082	-16.174438
26	1	3.273551	2.783641	-15.660961
27	1	2.740810	2.897928	-14.334602
28	1	1.991166	4.031028	-13.877541
29	1	1.361886	4.004536	-12.575119
30	1	0.195222	4.789844	-12.306471
31	1	-0.516527	4.543637	-11.078868
32	1	-1.909476	4.770348	-11.214991
33	1	-1.114461	3.404099	-8.885232
34	1	4.207702	1.345972	-17.463134
35	1	-2.857001	4.142125	-10.388593
36	1	-2.514047	3.478385	-9.199624
37	1	0.511482	-2.970018	-9.333154
38	1	1.076235	-3.150457	-8.009531
39	1	1.817325	-2.071701	-7.419006
40	1	2.320554	-2.094788	-6.078584
41	1	2.587148	-0.856101	-5.404217
42	1	3.040752	-0.780529	-4.050749
43	1	2.899658	0.407889	-3.239302
44	1	-1.623955	-3.192597	-10.739042
45	1	0.730824	-4.166163	-7.049155
46	1	1.348574	-4.288969	-5.746734
47	1	2.263319	-3.284418	-5.289672
48	1	2.807291	-3.253292	-3.963313
49	1	3.360646	-2.037280	-3.449837
50	1	3.951124	-1.976115	-2.161141
51	1	-3.018350	-3.051093	-10.424650
52	1	-3.459156	-3.654300	-9.235682
53	1	-0.743208	-3.609412	-9.652445
54	1	-0.542590	-4.763013	-7.317803
55	1	-2.619334	-4.420567	-8.409284
56	1	-1.208092	-4.410435	-8.545407
57	1	-3.950398	3.776033	-11.209485
58	1	4.819450	2.273895	-19.700428
59	1	4.332557	2.919993	-20.885741
60	1	3.211894	3.729417	-20.529329
61	1	4.343978	2.457833	-18.363897
62	1	3.560460	3.589113	-18.007193
63	1	2.923220	4.124731	-19.176113
64	1	1.674034	4.701991	-18.819409
65	1	3.121387	3.805492	-16.653977
66	1	2.131271	4.770231	-16.297565
67	1	1.411056	5.138739	-17.482877
68	1	0.072213	5.464328	-17.194305
69	1	1.605867	4.902507	-14.954825
70	1	0.330161	5.504517	-14.707317
71	1	-0.429570	5.670575	-15.893945
72	1	-1.803458	5.334110	-15.955058
73	1	-0.392605	5.384525	-13.481205
74	1	-1.825263	5.352292	-13.602492
75	1	-2.541324	5.051761	-14.801298
76	1	-3.567854	4.051870	-14.922584
77	1	-2.543621	5.023463	-12.448732
78	1	-3.746111	4.278619	-12.509845
79	1	-4.159763	3.620091	-13.696473
80	1	-4.623705	2.287950	-13.448965
