The data file data.cnt:

 1200 atoms
 1 atom types
 -35.7 35.7 xlo xhi
 -35.7 35.7 ylo yhi
 -162.3 139.3 zlo zhi

Atoms

1	1	-2.161008	0.285178	-18.957329
2	1	-1.939713	0.243559	-20.373500
3	1	-1.532911	-0.977536	-21.002932
4	1	-1.684110	-1.253883	-22.390883
5	1	-1.716421	-0.976365	-16.891489
6	1	-1.520883	-0.807029	-18.283490
7	1	-0.533406	-1.637030	-18.899814
8	1	-0.666585	-1.858779	-20.291814
9	1	-0.945525	-1.874682	-14.792421
10	1	-0.699302	-1.678205	-16.180372
11	1	0.573565	-1.868915	-16.809803
12	1	0.652626	-2.079754	-18.225974
13	1	-0.059441	-2.226170	-12.494430
14	1	0.146491	-2.008396	-13.893753
15	1	1.330755	-1.511360	-14.510035
16	1	1.630425	-1.516934	-15.909358
17	1	-2.322216	-1.783735	-25.164486
18	1	-1.572888	-2.716877	-24.353040
19	1	-1.201219	-2.446082	-22.999572
20	1	-0.130446	-3.123476	-22.325205
21	1	0.205572	-2.748157	-20.984783
22	1	1.494575	-2.974884	-20.394258
23	1	1.761388	-2.445436	-19.070635
24	1	3.096580	-1.997853	-18.751344
25	1	-0.900036	-3.825491	-24.953953
26	1	0.355421	-4.282344	-24.440477
27	1	0.758669	-3.915923	-23.114117
28	1	2.116351	-3.966735	-22.657056
29	1	2.461418	-3.439835	-21.354635
30	1	3.779364	-2.949088	-21.085986
31	1	3.993895	-2.227160	-19.858383
32	1	4.989651	-1.227072	-19.994506
33	1	3.416038	-1.077310	-17.664747
34	1	-1.357297	-4.204062	-26.242649
35	1	5.031042	-0.090958	-19.168108
36	1	4.291772	0.016970	-17.979140
37	1	-2.711948	1.314518	-18.112669
38	1	-3.187614	0.960616	-16.789046
39	1	-2.742557	-0.270178	-16.198521
40	1	-3.054487	-0.665744	-14.858099
41	1	-2.203015	-1.604047	-14.183732
42	1	-2.405848	-2.016754	-12.830265
43	1	-1.357727	-2.594410	-12.018818
44	1	-1.648816	3.179829	-19.518558
45	1	-3.811934	1.833078	-15.828670
46	1	-4.271631	1.402526	-14.526249
47	1	-3.988053	0.073818	-14.069188
48	1	-4.279656	-0.386445	-12.742829
49	1	-3.613672	-1.544613	-12.229352
50	1	-3.907952	-2.060174	-10.940657
51	1	-0.721473	4.230731	-19.204166
52	1	-0.954948	4.940419	-18.015197
53	1	-2.500691	2.706798	-18.431960
54	1	-3.555190	3.215792	-16.097318
55	1	-2.067010	4.704231	-17.188799
56	1	-2.880920	3.551298	-17.324922
57	1	5.370468	1.011007	-19.989000
58	1	-0.959484	-5.241859	-28.479944
59	1	-0.150699	-5.222518	-29.665256
60	1	1.160049	-4.783211	-29.308844
61	1	-0.532988	-4.962561	-27.143412
62	1	0.842949	-4.984782	-26.786708
63	1	1.649525	-4.778879	-27.955628
64	1	2.846449	-4.099858	-27.598924
65	1	1.274608	-4.753966	-25.433492
66	1	2.635541	-4.511247	-25.077080
67	1	3.354632	-4.140551	-26.262393
68	1	4.399233	-3.242043	-25.973821
69	1	3.049136	-4.161268	-23.734340
70	1	4.281625	-3.475111	-23.486832
71	1	4.859190	-2.954356	-24.673460
72	1	5.386103	-1.641672	-24.734573
73	1	4.605160	-2.817757	-22.260721
74	1	5.413584	-1.634542	-22.382008
75	1	5.586473	-0.877461	-23.580813
76	1	5.371806	0.539390	-23.702100
77	1	5.564811	-0.859108	-21.228247
78	1	5.659950	0.552177	-21.289360
79	1	5.365692	1.272023	-22.475988
80	1	4.553231	2.425170	-22.228481
81	1	1.027149	-1.922563	-10.177814
82	1	0.932057	-1.718452	-11.593985
83	1	1.687549	-0.676439	-12.223417
84	1	2.000243	-0.638339	-13.611368
85	1	1.793505	-0.826274	-8.111974
86	1	1.541958	-0.765995	-9.503975
87	1	1.641293	0.520141	-10.120298
88	1	1.899113	0.541080	-11.512299
89	1	2.074540	0.323627	-6.012905
90	1	1.771405	0.409291	-7.400856
91	1	1.184878	1.554955	-8.030288
92	1	1.310185	1.742043	-9.446459
93	1	1.844017	1.248586	-3.714915
94	1	1.547045	1.289095	-5.114238
95	1	0.453148	1.962084	-5.730520
96	1	0.283100	2.208898	-7.129843
97	1	2.802638	-0.848304	-16.384971
98	1	3.124543	0.304355	-15.573525
99	1	2.687923	0.448684	-14.220057
100	1	2.614696	1.713618	-13.545690
101	1	2.113890	1.768078	-12.205268
102	1	1.547236	2.947838	-11.614743
103	1	0.961474	2.856258	-10.291120
104	1	-0.180156	3.680730	-9.971829
105	1	3.633620	1.497082	-16.174438
106	1	3.273551	2.783641	-15.660961
107	1	2.740810	2.897928	-14.334602
108	1	1.991166	4.031028	-13.877541
109	1	1.361886	4.004536	-12.575119
110	1	0.195222	4.789844	-12.306471
111	1	-0.516527	4.543637	-11.078868
112	1	-1.909476	4.770348	-11.214991
113	1	-1.114461	3.404099	-8.885232
114	1	4.207702	1.345972	-17.463134
115	1	-2.857001	4.142125	-10.388593
116	1	-2.514047	3.478385	-9.199624
117	1	0.511482	-2.970018	-9.333154
118	1	1.076235	-3.150457	-8.009531
119	1	1.817325	-2.071701	-7.419006
120	1	2.320554	-2.094788	-6.078584
121	1	2.587148	-0.856101	-5.404217
122	1	3.040752	-0.780529	-4.050749
123	1	2.899658	0.407889	-3.239302
124	1	-1.623955	-3.192597	-10.739042
125	1	0.730824	-4.166163	-7.049155
126	1	1.348574	-4.288969	-5.746734
127	1	2.263319	-3.284418	-5.289672
128	1	2.807291	-3.253292	-3.963313
129	1	3.360646	-2.037280	-3.449837
130	1	3.951124	-1.976115	-2.161141
131	1	-3.018350	-3.051093	-10.424650
132	1	-3.459156	-3.654300	-9.235682
133	1	-0.743208	-3.609412	-9.652445
134	1	-0.542590	-4.763013	-7.317803
135	1	-2.619334	-4.420567	-8.409284
136	1	-1.208092	-4.410435	-8.545407
137	1	-3.950398	3.776033	-11.209485
138	1	4.819450	2.273895	-19.700428
139	1	4.332557	2.919993	-20.885741
140	1	3.211894	3.729417	-20.529329
141	1	4.343978	2.457833	-18.363897
142	1	3.560460	3.589113	-18.007193
143	1	2.923220	4.124731	-19.176113
144	1	1.674034	4.701991	-18.819409
145	1	3.121387	3.805492	-16.653977
146	1	2.131271	4.770231	-16.297565
147	1	1.411056	5.138739	-17.482877
148	1	0.072213	5.464328	-17.194305
149	1	1.605867	4.902507	-14.954825
150	1	0.330161	5.504517	-14.707317
151	1	-0.429570	5.670575	-15.893945
152	1	-1.803458	5.334110	-15.955058
153	1	-0.392605	5.384525	-13.481205
154	1	-1.825263	5.352292	-13.602492
155	1	-2.541324	5.051761	-14.801298
156	1	-3.567854	4.051870	-14.922584
157	1	-2.543621	5.023463	-12.448732
158	1	-3.746111	4.278619	-12.509845
159	1	-4.159763	3.620091	-13.696473
160	1	-4.623705	2.287950	-13.448965
161	1	0.964237	1.954873	-1.398298
162	1	0.853738	1.758676	-2.814469
163	1	-0.433318	1.765681	-3.443901
164	1	-0.646450	1.997637	-4.831852
165	1	-0.373261	1.939089	0.667541
166	1	-0.275711	1.699519	-0.724459
167	1	-1.378928	1.030993	-1.340783
168	1	-1.546144	1.228346	-2.732784
169	1	-1.471601	1.497611	2.766610
170	1	-1.364630	1.201324	1.378659
171	1	-1.954111	0.057177	0.749227
172	1	-2.179173	0.050033	-0.666944
173	1	-2.089095	0.771394	5.064601
174	1	-1.949013	0.506422	3.665278
175	1	-1.858735	-0.774740	3.048996
176	1	-1.960276	-1.056738	1.649673
177	1	-0.943245	2.772126	-7.605456
178	1	-2.067637	2.362261	-6.794010
179	1	-1.930583	1.923303	-5.440542
180	1	-2.916037	1.126874	-4.766175
181	1	-2.668547	0.688102	-3.425753
182	1	-3.297319	-0.459756	-2.835227
183	1	-2.881638	-0.882501	-1.511604
184	1	-2.886674	-2.290707	-1.192313
185	1	-3.333635	2.081184	-7.394923
186	1	-4.169561	1.039016	-6.881446
187	1	-3.952093	0.539435	-5.555087
188	1	-4.436335	-0.729971	-5.098025
189	1	-4.048204	-1.226004	-3.795604
190	1	-4.006824	-2.631743	-3.526956
191	1	-3.392069	-3.066806	-2.299352
192	1	-2.764847	-4.331044	-2.435475
193	1	-2.117536	-2.888936	-0.105716
194	1	-3.545258	2.635818	-8.683618
195	1	-1.702240	-4.735191	-1.609078
196	1	-1.362559	-4.069770	-0.420109
197	1	2.116001	2.145964	-0.553638
198	1	1.933651	2.710103	0.769984
199	1	0.625121	2.683996	1.360510
200	1	0.350720	3.106462	2.700932
201	1	-0.811370	2.601523	3.375298
202	1	-1.137050	2.926178	4.728766
203	1	-2.020776	2.119164	5.540213
204	1	3.540949	0.539989	-1.959527
205	1	2.960423	3.021078	1.730361
206	1	2.700355	3.594717	3.032782
207	1	1.350973	3.752984	3.489843
208	1	1.008772	4.176981	4.816202
209	1	-0.301946	3.918327	5.329679
210	1	-0.695654	4.362623	6.618374
211	1	4.238269	-0.675784	-1.645135
212	1	4.985344	-0.682654	-0.456167
213	1	3.366631	1.498667	-0.872930
214	1	4.187383	2.333778	1.461712
215	1	5.118897	0.446342	0.370232
216	1	4.288515	1.587469	0.234109
217	1	-0.767708	-5.410609	-2.429969
218	1	-4.655842	2.592456	-10.920913
219	1	-4.897329	1.820322	-12.106225
220	1	-4.902351	0.437923	-11.749814
221	1	-4.528349	2.098845	-9.584381
222	1	-4.991378	0.802968	-9.227678
223	1	-5.055481	-0.027004	-10.396597
224	1	-4.796930	-1.378613	-10.039894
225	1	-4.911455	0.320041	-7.874461
226	1	-5.118767	-1.046734	-7.518049
227	1	-4.998707	-1.846792	-8.703362
228	1	-4.483371	-3.124656	-8.414790
229	1	-4.920194	-1.550831	-6.175309
230	1	-4.666309	-2.938414	-5.927801
231	1	-4.358681	-3.652649	-7.114430
232	1	-3.284825	-4.573305	-7.175543
233	1	-4.147720	-3.455961	-4.701690
234	1	-3.286900	-4.601620	-4.822977
235	1	-2.625478	-5.008540	-6.021782
236	1	-1.214761	-5.260380	-6.143069
237	1	-2.601140	-4.993922	-3.669217
238	1	-1.295211	-5.537360	-3.730330
239	1	-0.518991	-5.489931	-4.916958
240	1	0.834026	-5.090949	-4.669450
241	1	1.490724	1.590290	-27.736844
242	1	1.327978	1.434672	-29.153016
243	1	0.098504	1.815403	-29.782447
244	1	-0.038021	2.099287	-31.170398
245	1	0.206363	1.963874	-25.671005
246	1	0.230082	1.706295	-27.063005
247	1	-1.019801	1.387225	-27.679329
248	1	-1.122448	1.624656	-29.071330
249	1	-0.972872	1.860637	-23.571936
250	1	-0.956621	1.546050	-24.959887
251	1	-1.853160	0.622590	-25.589319
252	1	-2.070585	0.681159	-27.005490
253	1	-1.774761	1.345211	-21.273945
254	1	-1.717727	1.050965	-22.673268
255	1	-2.003662	-0.201141	-23.289550
256	1	-2.182771	-0.441460	-24.688873
257	1	-0.096935	2.926602	-33.944002
258	1	-1.291910	2.861183	-33.132556
259	1	-1.288336	2.401341	-31.779088
260	1	-2.462709	1.925665	-31.104721
261	1	-2.353411	1.433907	-29.764299
262	1	-3.288622	0.518314	-29.173773
263	1	-3.013734	-0.006987	-27.850150
264	1	-3.427789	-1.352954	-27.530859
265	1	-2.584953	2.960146	-33.733469
266	1	-3.687665	2.205882	-33.219992
267	1	-3.624765	1.664664	-31.893633
268	1	-4.457008	0.590768	-31.436571
269	1	-4.229779	0.003348	-30.134150
270	1	-4.598704	-1.353747	-29.865502
271	1	-4.136913	-1.948687	-28.637898
272	1	-3.904158	-3.340639	-28.774021
273	1	-2.865696	-2.148883	-26.444262
274	1	-2.626262	3.552343	-35.022164
275	1	-3.004860	-4.036146	-27.947624
276	1	-2.486462	-3.498157	-26.758655
277	1	2.648313	1.438422	-26.892184
278	1	2.637777	2.031206	-25.568562
279	1	1.378133	2.386496	-24.978036
280	1	1.238347	2.870471	-23.637614
281	1	-0.020330	2.725037	-22.963248
282	1	-0.237606	3.130326	-21.609780
283	1	-1.317717	2.614959	-20.798333
284	1	3.545054	-0.512344	-28.298073
285	1	3.710607	2.030373	-24.608185
286	1	3.628467	2.654832	-23.305764
287	1	2.383315	3.198410	-22.848703
288	1	2.179100	3.703554	-21.522344
289	1	0.849782	3.836968	-21.008868
290	1	0.602182	4.376504	-19.720172
291	1	3.858966	-1.878294	-27.983681
292	1	4.571803	-2.101973	-26.794713
293	1	3.656860	0.455618	-27.211476
294	1	4.684879	1.016170	-24.876834
295	1	5.027687	-1.060514	-25.968314
296	1	4.564763	0.272680	-26.104437
297	1	-2.306942	-4.953997	-28.768515
298	1	-3.701518	3.833596	-37.259459
299	1	-4.156971	3.164964	-38.444771
300	1	-4.563512	1.843686	-38.088360
301	1	-3.722973	3.324238	-35.922927
302	1	-4.542612	2.218848	-35.566224
303	1	-4.845145	1.443325	-36.735143
304	1	-4.990541	0.074912	-36.378440
305	1	-4.606481	1.733538	-34.213007
306	1	-5.202041	0.485996	-33.856596
307	1	-5.319667	-0.314423	-35.041908
308	1	-5.197929	-1.686898	-34.753336
309	1	-5.158533	-0.054053	-32.513855
310	1	-5.318848	-1.455531	-32.266347
311	1	-5.232060	-2.228341	-33.452976
312	1	-4.472098	-3.421335	-33.514089
313	1	-4.973044	-2.101448	-31.040236
314	1	-4.482312	-3.447824	-31.161523
315	1	-3.967691	-4.029397	-32.360328
316	1	-2.691043	-4.680334	-32.481615
317	1	-3.940155	-4.022483	-30.007763
318	1	-2.848514	-4.921981	-30.068876
319	1	-2.092011	-5.102174	-31.255504
320	1	-0.681440	-5.113610	-31.007996
321	1	-2.150619	-0.355136	7.381217
322	1	-1.926780	-0.330649	5.965046
323	1	-1.182674	-1.380824	5.335614
324	1	-1.247039	-1.689184	3.947663
325	1	-1.358604	-1.433033	9.447057
326	1	-1.220716	-1.214180	8.055056
327	1	-0.034651	-1.721391	7.438732
328	1	-0.097641	-1.972273	6.046732
329	1	-0.359921	-2.068552	11.546126
330	1	-0.181422	-1.809000	10.158174
331	1	1.091933	-1.621574	9.528743
332	1	1.228854	-1.800338	8.112572
333	1	0.590068	-2.147368	13.844116
334	1	0.723825	-1.879147	12.444793
335	1	1.712536	-1.059405	11.828511
336	1	2.000893	-0.977652	10.429188
337	1	-1.703626	-2.381608	1.174060
338	1	-0.715459	-3.056717	1.985506
339	1	-0.438526	-2.689599	3.338974
340	1	0.782892	-3.026582	4.013341
341	1	0.995337	-2.569812	5.353763
342	1	2.294597	-2.412159	5.944288
343	1	2.396034	-1.828023	7.267911
344	1	3.543531	-1.011738	7.587202
345	1	0.250526	-3.921949	1.384593
346	1	1.584566	-3.994239	1.898069
347	1	1.863925	-3.526444	3.224429
348	1	3.177779	-3.180511	3.681490
349	1	3.354832	-2.576071	4.983911
350	1	4.473284	-1.723498	5.252560
351	1	4.468757	-0.970382	6.480163
352	1	5.130905	0.275918	6.344040
353	1	3.581684	-0.038088	8.673799
354	1	-0.076985	-4.417065	0.095897
355	1	4.840346	1.375029	7.170438
356	1	4.101617	1.263461	8.359406
357	1	-2.976916	0.469673	8.225877
358	1	-3.329206	-0.007188	9.549500
359	1	-2.545678	-1.055527	10.140025
360	1	-2.729192	-1.524670	11.480447
361	1	-1.641789	-2.175034	12.154814
362	1	-1.715932	-2.628874	13.508281
363	1	-0.545174	-2.877008	14.319728
364	1	-2.501741	2.563435	6.819988
365	1	-4.180127	0.646188	10.509876
366	1	-4.494862	0.100626	11.812297
367	1	-3.837390	-1.088328	12.269358
368	1	-3.982651	-1.613470	13.595717
369	1	-3.008837	-2.528113	14.109194
370	1	-3.140590	-3.106944	15.397889
371	1	-1.919821	3.838476	7.134380
372	1	-2.349460	4.449686	8.323349
373	1	-3.179384	1.863257	7.906586
374	1	-4.336291	2.043838	10.241228
375	1	-3.344890	3.900517	9.149747
376	1	-3.788622	2.560813	9.013624
377	1	4.844884	2.528076	6.349546
378	1	0.605252	-5.294465	-2.141398
379	1	1.373511	-5.040920	-3.326710
380	1	2.500024	-4.239658	-2.970298
381	1	0.932175	-4.903279	-0.804866
382	1	2.255187	-4.524682	-0.448162
383	1	2.967116	-4.093268	-1.617082
384	1	3.915054	-3.095716	-1.260378
385	1	2.601139	-4.178384	0.905054
386	1	3.832802	-3.550642	1.261466
387	1	4.413131	-2.986971	0.076153
388	1	5.151535	-1.823671	0.364725
389	1	4.126840	-3.095573	2.604206
390	1	5.106735	-2.080858	2.851714
391	1	5.508038	-1.414733	1.665086
392	1	5.630734	-0.005576	1.603973
393	1	5.225274	-1.357852	4.077825
394	1	5.654956	0.009232	3.956538
395	1	5.600370	0.783883	2.757733
396	1	4.983219	2.077201	2.636446
397	1	5.574310	0.795148	5.110299
398	1	5.255212	2.173173	5.049186
399	1	4.764460	2.776439	3.862558
400	1	3.651949	3.643711	4.110065
401	1	0.424108	-2.138087	-36.516360
402	1	0.392435	-1.915151	-37.932531
403	1	1.418140	-1.137661	-38.561963
404	1	1.728410	-1.192077	-39.949914
405	1	1.475979	-1.311821	-34.450520
406	1	1.252806	-1.181041	-35.842521
407	1	1.721615	0.020720	-36.458844
408	1	1.974393	-0.034170	-37.850845
409	1	2.079056	-0.293218	-32.351451
410	1	1.813898	-0.123158	-33.739402
411	1	1.585623	1.143511	-34.368834
412	1	1.759892	1.286110	-35.785005
413	1	2.127283	0.658814	-30.053461
414	1	1.854900	0.783876	-31.452784
415	1	1.003788	1.745717	-32.069066
416	1	0.912805	2.031296	-33.468389
417	1	2.435158	-1.626162	-42.723517
418	1	3.078142	-0.616797	-41.912071
419	1	2.702309	-0.351812	-40.558603
420	1	2.999842	0.879810	-39.884236
421	1	2.536477	1.077458	-38.543814
422	1	2.337126	2.370976	-37.953289
423	1	1.750030	2.453576	-36.629666
424	1	0.897269	3.574232	-36.310375
425	1	3.911865	0.376511	-42.512984
426	1	3.941220	1.712185	-41.999508
427	1	3.464684	1.976358	-40.673148
428	1	3.076681	3.278408	-40.216087
429	1	2.466861	3.435933	-38.913665
430	1	1.578764	4.526391	-38.645017
431	1	0.826183	4.497650	-37.417414
432	1	-0.440765	5.119380	-37.553537
433	1	-0.077105	3.581056	-35.223778
434	1	4.417257	0.065090	-43.801680
435	1	-1.529964	4.793627	-36.727139
436	1	-1.394700	4.058868	-35.538170
437	1	-0.373704	-2.990480	-35.671700
438	1	0.114238	-3.327253	-34.348077
439	1	1.136840	-2.510420	-33.757552
440	1	1.611642	-2.678753	-32.417130
441	1	2.226702	-1.570999	-31.742763
442	1	2.682692	-1.630510	-30.389295
443	1	2.893051	-0.452379	-29.577849
444	1	-2.481663	-2.582877	-37.077588
445	1	-0.511437	-4.198744	-33.387701
446	1	0.043963	-4.495773	-32.085280
447	1	1.211161	-3.800409	-31.628218
448	1	1.740702	-3.928708	-30.301859
449	1	2.623558	-2.925987	-29.788383
450	1	3.206326	-3.039059	-28.499687
451	1	-3.774757	-2.042258	-36.763196
452	1	-4.371836	-2.491330	-35.574228
453	1	-1.760057	-3.237655	-35.990991
454	1	-1.903343	-4.399770	-33.656349
455	1	-3.790941	-3.468586	-34.747830
456	1	-2.437661	-3.869008	-34.883953
457	1	-2.682561	4.761085	-37.548031
458	1	5.272265	0.775188	-46.038974
459	1	4.994146	1.534896	-47.224287
460	1	4.157075	2.635062	-46.867875
461	1	4.870768	1.089363	-44.702443
462	1	4.449824	2.399516	-44.345739
463	1	3.995740	3.097205	-45.514659
464	1	2.968223	4.012576	-45.157955
465	1	4.092581	2.734155	-42.992523
466	1	3.425558	3.944994	-42.636111
467	1	2.843517	4.506898	-43.821423
468	1	1.657075	5.207513	-43.532852
469	1	2.961270	4.224247	-41.293371
470	1	1.915569	5.171006	-41.045863
471	1	1.236884	5.550682	-42.232491
472	1	-0.175489	5.628001	-42.293604
473	1	1.189126	5.266235	-39.819751
474	1	-0.191069	5.651735	-39.941038
475	1	-0.963563	5.572267	-41.139844
476	1	-2.236367	4.913848	-41.261130
477	1	-0.973985	5.545858	-38.787278
478	1	-2.341036	5.182613	-38.848391
479	1	-2.928209	4.672717	-40.035019
480	1	-3.759259	3.532893	-39.787511
481	1	1.541532	-1.541091	16.160732
482	1	1.391228	-1.373424	14.744561
483	1	1.811297	-0.156830	14.115129
484	1	2.099424	-0.029503	12.727178
485	1	1.956223	-0.269407	18.226572
486	1	1.698014	-0.284831	16.834571
487	1	1.419301	0.974666	16.218248
488	1	1.659909	1.069625	14.826247
489	1	1.890958	0.912538	20.325641
490	1	1.576012	0.906411	18.937690
491	1	0.681858	1.832181	18.308258
492	1	0.747388	2.047611	16.892087
493	1	1.401584	1.730586	22.623631
494	1	1.105657	1.683044	21.224308
495	1	-0.136607	2.009093	20.608026
496	1	-0.371042	2.195838	19.208703
497	1	2.928206	0.002777	9.953575
498	1	2.901246	1.199237	10.765021
499	1	2.441527	1.210452	12.118489
500	1	2.003860	2.399513	12.792856
501	1	1.508842	2.306085	14.133278
502	1	0.623795	3.270255	14.723803
503	1	0.089927	3.012401	16.047426
504	1	-1.242030	3.469523	16.366717
505	1	3.041737	2.488430	10.164108
506	1	2.323323	3.614826	10.677585
507	1	1.780362	3.569361	12.003944
508	1	0.733783	4.435706	12.461005
509	1	0.139360	4.227484	13.763427
510	1	-1.205171	4.639857	14.032075
511	1	-1.814652	4.197436	15.259678
512	1	-3.213369	4.009561	15.123555
513	1	-2.055622	2.933314	17.453314
514	1	3.634956	2.510675	8.875412
515	1	-3.937434	3.133092	15.949953
516	1	-3.416393	2.597663	17.138922
517	1	1.352519	-2.693198	17.005392
518	1	1.945335	-2.701728	18.329015
519	1	2.340946	-1.454161	18.919540
520	1	2.829167	-1.330009	20.259962
521	1	2.724282	-0.067307	20.934329
522	1	3.136348	0.136824	22.287797
523	1	2.655979	1.232949	23.099244
524	1	-0.626074	-3.526746	15.599504
525	1	1.910004	-3.773977	19.289391
526	1	2.536782	-3.711960	20.591812
527	1	3.120118	-2.484931	21.048874
528	1	3.631568	-2.297065	22.375233
529	1	3.807658	-0.972725	22.888709
530	1	4.354877	-0.742602	24.177405
531	1	-2.001412	-3.796572	15.913896
532	1	-2.247897	-4.501847	17.102864
533	1	0.337792	-3.669620	16.686101
534	1	0.864997	-4.715133	19.020743
535	1	-1.221636	-4.990985	17.929262
536	1	0.125755	-4.571171	17.793139
537	1	-4.877253	2.465050	15.129061
538	1	3.950640	3.576330	6.638118
539	1	3.296999	4.053048	5.452805
540	1	1.989477	4.501866	5.809217
541	1	3.442235	3.614154	7.974649
542	1	2.363773	4.468914	8.331353
543	1	1.598380	4.796228	7.162433
544	1	0.235349	4.985551	7.519137
545	1	1.880768	4.548355	9.684569
546	1	0.653022	5.183723	10.040981
547	1	-0.143201	5.327026	8.855669
548	1	-1.518881	5.249485	9.144241
549	1	0.111853	5.157603	11.383722
550	1	-1.283745	5.362901	11.631229
551	1	-2.058946	5.301009	10.444601
552	1	-3.275760	4.579802	10.383488
553	1	-1.940448	5.038047	12.857341
554	1	-3.301908	4.590863	12.736054
555	1	-3.899728	4.095208	11.537248
556	1	-4.591380	2.840153	11.415962
557	1	-3.893703	4.067464	13.889814
558	1	-4.827839	3.005313	13.828701
559	1	-5.032265	2.254995	12.642073
560	1	-5.089053	0.845521	12.889581
561	1	-1.984869	0.900877	-45.295875
562	1	-1.785219	0.796744	-46.712046
563	1	-1.750834	-0.489871	-47.341478
564	1	-1.975816	-0.710352	-48.729429
565	1	-1.926083	-0.435421	-43.230035
566	1	-1.689774	-0.330218	-44.622036
567	1	-0.986119	-1.411367	-45.238360
568	1	-1.177993	-1.584843	-46.630360
569	1	-1.449516	-1.518997	-41.130967
570	1	-1.156822	-1.402554	-42.518918
571	1	0.005689	-1.954939	-43.148349
572	1	0.020067	-2.179655	-44.564520
573	1	-0.703818	-2.112820	-38.832976
574	1	-0.443488	-1.964290	-40.232299
575	1	0.834109	-1.832861	-40.848581
576	1	1.119226	-1.925281	-42.247904
577	1	-2.740362	-1.031898	-51.503033
578	1	-2.294552	-2.142528	-50.691586
579	1	-1.860229	-1.991431	-49.338118
580	1	-1.032523	-2.950765	-48.663751
581	1	-0.601936	-2.689294	-47.323329
582	1	0.565547	-3.280830	-46.732804
583	1	0.974706	-2.851770	-45.409181
584	1	2.382347	-2.811521	-45.089890
585	1	-1.972911	-3.398833	-51.292499
586	1	-0.904402	-4.200815	-50.779023
587	1	-0.412072	-3.967395	-49.452663
588	1	0.872248	-4.410568	-48.995602
589	1	1.355544	-4.006687	-47.693181
590	1	2.759226	-3.920126	-47.424532
591	1	3.174296	-3.291698	-46.196929
592	1	4.417711	-2.624147	-46.333052
593	1	2.955534	-2.023544	-44.003293
594	1	-2.520454	-3.628182	-52.581195
595	1	4.787480	-1.549094	-45.506654
596	1	4.111480	-1.230986	-44.317686
597	1	-2.212897	2.045901	-44.451215
598	1	-2.770880	1.845505	-43.127592
599	1	-2.702710	0.538491	-42.537067
600	1	-3.116133	0.250647	-41.196645
601	1	-2.574087	-0.894606	-40.522278
602	1	-2.888101	-1.230556	-39.168811
603	1	-2.053087	-2.087875	-38.357364
604	1	-0.653573	3.521754	-45.857104
605	1	-3.114712	2.861746	-42.167216
606	1	-3.679691	2.583367	-40.864795
607	1	-3.794485	1.229593	-40.407734
608	1	-4.207259	0.873935	-39.081375
609	1	-3.906591	-0.427788	-38.567898
610	1	-4.337997	-0.835579	-37.279203
611	1	0.539149	4.257808	-45.542712
612	1	0.521992	5.004717	-44.353743
613	1	-1.606150	3.316699	-44.770506
614	1	-2.467221	4.110172	-42.435864
615	1	-0.610715	5.101897	-43.527345
616	1	-1.724550	4.235251	-43.663468
617	1	5.432498	-0.593327	-46.327546
618	1	-2.441402	-4.736798	-54.818490
619	1	-1.661902	-4.953331	-56.003802
620	1	-0.280056	-4.913897	-55.647390
621	1	-1.952146	-4.593497	-53.481958
622	1	-0.642049	-5.014617	-53.125254
623	1	0.189554	-5.051998	-54.294174
624	1	1.532150	-4.750119	-53.937470
625	1	-0.161943	-4.919207	-51.772038
626	1	1.210792	-5.082461	-51.415626
627	1	2.006576	-4.936737	-52.600939
628	1	3.267207	-4.380576	-52.312367
629	1	1.708244	-4.867781	-50.072886
630	1	3.086944	-4.569408	-49.825378
631	1	3.790918	-4.238973	-51.012006
632	1	4.676567	-3.136066	-51.073119
633	1	3.587548	-4.034445	-48.599267
634	1	4.704934	-3.137230	-48.720554
635	1	5.090375	-2.463066	-49.919359
636	1	5.296721	-1.044980	-50.040646
637	1	5.074982	-2.439210	-47.566793
638	1	5.576146	-1.116481	-47.627906
639	1	5.503781	-0.342188	-48.814535
640	1	5.061497	0.997300	-48.567027
641	1	0.354520	2.150720	24.940248
642	1	0.305807	1.930878	23.524077
643	1	-0.927738	1.563552	22.894645
644	1	-1.199080	1.723559	21.506694
645	1	-0.920666	1.746929	27.006087
646	1	-0.757706	1.546048	25.614087
647	1	-1.619031	0.585770	24.997763
648	1	-1.836383	0.726012	23.605762
649	1	-1.843308	1.005319	29.105156
650	1	-1.654850	0.752905	27.717205
651	1	-1.886392	-0.513171	27.087773
652	1	-2.099665	-0.585412	25.671602
653	1	-2.223108	0.130995	31.403147
654	1	-2.012068	-0.081833	30.003824
655	1	-1.553370	-1.281467	29.387542
656	1	-1.568578	-1.580804	27.988219
657	1	-1.708139	2.378373	18.733090
658	1	-2.664894	1.659439	19.544537
659	1	-2.406191	1.279254	20.898004
660	1	-3.117666	0.230817	21.572371
661	1	-2.753347	-0.117096	22.912794
662	1	-3.021405	-1.398141	23.503319
663	1	-2.500811	-1.681841	24.826942
664	1	-2.096393	-3.030736	25.146233
665	1	-3.794571	1.022583	18.943623
666	1	-4.291558	-0.217534	19.457100
667	1	-3.938293	-0.632356	20.783459
668	1	-4.032737	-1.987702	21.240521
669	1	-3.517205	-2.349533	22.542942
670	1	-3.069093	-3.682578	22.811590
671	1	-2.354436	-3.920212	24.039194
672	1	-1.386885	-4.947613	23.903071
673	1	-1.186600	-3.379629	26.232830
674	1	-4.158242	1.491781	17.654928
675	1	-0.252690	-5.025515	24.729468
676	1	-0.121045	-4.290098	25.918437
677	1	1.401044	2.668276	25.784908
678	1	1.062621	3.155075	27.108530
679	1	-0.181849	2.749826	27.699056
680	1	-0.567179	3.074316	29.039478
681	1	-1.532377	2.253456	29.713844
682	1	-1.938348	2.469454	31.067312
683	1	-2.549410	1.440451	31.878759
684	1	3.231204	1.545713	24.379019
685	1	1.954707	3.751018	28.068907
686	1	1.539160	4.224322	29.371328
687	1	0.202020	3.983617	29.828389
688	1	-0.248629	4.289869	31.154748
689	1	-1.427612	3.661472	31.668225
690	1	-1.933444	3.972179	32.956920
691	1	4.251743	0.585056	24.693411
692	1	4.968572	0.795589	25.882379
693	1	2.785810	2.412358	25.465616
694	1	3.328450	3.449944	27.800258
695	1	4.768266	1.914671	26.708778
696	1	3.642101	2.765235	26.572655
697	1	0.837792	-5.400201	23.908577
698	1	-5.208295	1.127546	15.417633
699	1	-5.214971	0.318557	14.232321
700	1	-4.818040	-1.005640	14.588732
701	1	-4.942856	0.692289	16.754165
702	1	-5.009310	-0.682222	17.110868
703	1	-4.829450	-1.495002	15.941949
704	1	-4.189269	-2.713142	16.298652
705	1	-4.792494	-1.121080	18.464085
706	1	-4.593662	-2.489114	18.820497
707	1	-4.246281	-3.219753	17.635184
708	1	-3.381828	-4.292706	17.923756
709	1	-4.257165	-2.913749	20.163237
710	1	-3.610994	-4.167665	20.410745
711	1	-3.109081	-4.761677	19.224116
712	1	-1.814019	-5.330528	19.163003
713	1	-2.964384	-4.512170	21.636856
714	1	-1.807776	-5.358224	21.515569
715	1	-1.056646	-5.555368	20.316764
716	1	0.366375	-5.386372	20.195477
717	1	-1.037606	-5.534308	22.669329
718	1	0.369889	-5.674779	22.608216
719	1	1.098826	-5.403820	21.421588
720	1	2.277502	-4.628860	21.669096
721	1	1.888539	1.088440	-54.075390
722	1	1.687592	0.986834	-55.491562
723	1	0.621824	1.708428	-56.120993
724	1	0.573689	2.019735	-57.508945
725	1	0.768175	1.819147	-52.009551
726	1	0.716015	1.565792	-53.401551
727	1	-0.572650	1.623718	-54.017875
728	1	-0.601868	1.880732	-55.409876
729	1	-0.390169	2.063060	-49.910482
730	1	-0.466041	1.757328	-51.298433
731	1	-1.592252	1.134264	-51.927865
732	1	-1.783273	1.253490	-53.344036
733	1	-1.307237	1.802914	-47.612491
734	1	-1.338175	1.504793	-49.011814
735	1	-1.975641	0.389820	-49.628096
736	1	-2.216859	0.211924	-51.027419
737	1	0.757743	2.828466	-60.282548
738	1	-0.404671	3.113140	-59.471102
739	1	-0.534885	2.672105	-58.117634
740	1	-1.796810	2.558240	-57.443267
741	1	-1.835138	2.055942	-56.102845
742	1	-2.996066	1.451645	-55.512319
743	1	-2.885699	0.869131	-54.188696
744	1	-3.673033	-0.298420	-53.869405
745	1	-1.613150	3.583601	-60.072015
746	1	-2.887466	3.182347	-59.558538
747	1	-2.984563	2.646207	-58.232179
748	1	-4.092971	1.860515	-57.775117
749	1	-4.046258	1.232412	-56.472696
750	1	-4.793644	0.041098	-56.204048
751	1	-4.524677	-0.662365	-54.976444
752	1	-4.706480	-2.061884	-55.112567
753	1	-3.366501	-1.223347	-52.782809
754	1	-1.480579	4.162244	-61.360710
755	1	-4.048113	-2.988718	-54.286170
756	1	-3.395744	-2.624599	-53.097201
757	1	2.952035	0.606722	-53.230730
758	1	3.114221	1.176985	-51.907108
759	1	2.012191	1.883003	-51.316582
760	1	2.019085	2.386714	-49.976161
761	1	0.772465	2.613339	-49.301794
762	1	0.682347	3.064278	-47.948326
763	1	-0.500919	2.885042	-47.136879
764	1	3.243166	-1.520454	-54.636619
765	1	4.140508	0.864414	-50.946731
766	1	4.243386	1.485793	-49.644310
767	1	3.209940	2.367763	-49.187249
768	1	3.161338	2.910453	-47.860890
769	1	1.928162	3.424419	-47.347414
770	1	1.848041	4.012624	-46.058718
771	1	3.146574	-2.918678	-54.322227
772	1	3.763643	-3.339859	-53.133259
773	1	3.631444	-0.626759	-53.550022
774	1	4.777997	-0.389150	-51.215380
775	1	4.502509	-2.475831	-52.306861
776	1	4.447001	-1.065645	-52.442983
777	1	-3.647051	-4.069777	-55.107062
778	1	-2.427694	4.743838	-63.598005
779	1	-3.057801	4.236421	-64.783318
780	1	-3.830771	3.090310	-64.426906
781	1	-2.596247	4.262698	-62.261473
782	1	-3.701748	3.443207	-61.904770
783	1	-4.216597	2.789073	-63.073689
784	1	-4.753390	1.521970	-62.716986
785	1	-3.903895	2.997403	-60.551553
786	1	-4.836298	1.976777	-60.195142
787	1	-5.181456	1.245085	-61.380454
788	1	-5.463824	-0.103535	-61.091882
789	1	-4.951610	1.447391	-58.852401
790	1	-5.512287	0.152987	-58.604894
791	1	-5.653829	-0.611691	-59.791522
792	1	-5.273360	-1.974049	-59.852635
793	1	-5.369116	-0.565547	-57.378782
794	1	-5.290831	-1.996427	-57.500069
795	1	-4.967429	-2.702454	-58.698874
796	1	-3.935047	-3.696302	-58.820161
797	1	-4.939072	-2.703840	-56.346309
798	1	-4.155946	-3.881758	-56.407422
799	1	-3.484458	-4.274020	-57.594050
800	1	-2.138087	-4.694885	-57.346542
801	1	-1.954597	-0.964796	33.719763
802	1	-1.747535	-0.876316	32.303592
803	1	-0.730354	-1.664925	31.674160
804	1	-0.702329	-1.978682	30.286209
805	1	-0.883519	-1.766007	35.785603
806	1	-0.815182	-1.516529	34.393602
807	1	0.467095	-1.657169	33.777279
808	1	0.479732	-1.915530	32.385278
809	1	0.256751	-2.083873	37.884672
810	1	0.352118	-1.783650	36.496720
811	1	1.516050	-1.234266	35.867289
812	1	1.699012	-1.365525	34.451118
813	1	1.188644	-1.883213	40.182662
814	1	1.238681	-1.587698	38.783339
815	1	1.946498	-0.516006	38.167057
816	1	2.198652	-0.353983	36.767734
817	1	-0.937987	-2.773910	27.512606
818	1	0.203725	-3.132714	28.324052
819	1	0.362019	-2.700961	29.677520
820	1	1.628653	-2.668447	30.351887
821	1	1.699189	-2.169651	31.692309
822	1	2.896560	-1.641227	32.282834
823	1	2.823864	-1.052823	33.606457
824	1	3.684619	0.061705	33.925748
825	1	1.379464	-3.679881	27.723139
826	1	2.676937	-3.361369	28.236615
827	1	2.808296	-2.832579	29.562975
828	1	3.964915	-2.119759	30.020036
829	1	3.958672	-1.489952	31.322457
830	1	4.781089	-0.349143	31.591106
831	1	4.557896	0.370154	32.818709
832	1	4.829282	1.755093	32.682586
833	1	3.438175	1.004422	35.012345
834	1	1.209973	-4.248807	26.434443
835	1	4.231853	2.722329	33.508984
836	1	3.557428	2.400896	34.697952
837	1	-2.984930	-0.415713	34.564423
838	1	-3.183436	-0.974372	35.888046
839	1	-2.129067	-1.749767	36.478571
840	1	-2.168324	-2.251994	37.818993
841	1	-0.938850	-2.558281	38.493360
842	1	-0.877904	-3.014081	39.846828
843	1	0.314436	-2.911274	40.658274
844	1	-3.138726	1.725776	33.158535
845	1	-4.187509	-0.596479	36.848422